# Force coefficients
# liftDir    : (0.000000e+00 1.000000e+00 0.000000e+00)
# dragDir    : (1.000000e+00 0.000000e+00 0.000000e+00)
# pitchAxis  : (0.000000e+00 0.000000e+00 1.000000e+00)
# magUInf    : 4.440000e+03
# lRef       : 1.998074e+00
# Aref       : 1.998074e-02
# CofR       : (1.500000e+00 0.000000e+00 0.000000e+00)
#            
# Time       	Cm           	Cd           	Cl           	Cl(f)        	Cl(r)        
0.007000222965	-1.901415e-01	7.956640e-01	7.305769e-03	-1.864886e-01	1.937943e-01
0.007000445931	-1.901413e-01	7.956634e-01	7.305842e-03	-1.864884e-01	1.937942e-01
0.007000668896	-1.901411e-01	7.956628e-01	7.305916e-03	-1.864882e-01	1.937941e-01
0.007000891862	-1.901410e-01	7.956623e-01	7.305990e-03	-1.864880e-01	1.937940e-01
0.007001114827	-1.901408e-01	7.956618e-01	7.306064e-03	-1.864878e-01	1.937938e-01
0.007001337793	-1.901406e-01	7.956612e-01	7.306138e-03	-1.864876e-01	1.937937e-01
0.007001560758	-1.901405e-01	7.956607e-01	7.306213e-03	-1.864874e-01	1.937936e-01
0.007001783724	-1.901403e-01	7.956602e-01	7.306288e-03	-1.864872e-01	1.937935e-01
0.007002006689	-1.901402e-01	7.956597e-01	7.306363e-03	-1.864870e-01	1.937934e-01
0.007002229654	-1.901401e-01	7.956592e-01	7.306437e-03	-1.864868e-01	1.937933e-01
0.00700245262	-1.901399e-01	7.956587e-01	7.306512e-03	-1.864867e-01	1.937932e-01
0.007002675585	-1.901398e-01	7.956582e-01	7.306587e-03	-1.864865e-01	1.937931e-01
0.007002898551	-1.901396e-01	7.956577e-01	7.306662e-03	-1.864863e-01	1.937930e-01
0.007003121516	-1.901395e-01	7.956573e-01	7.306736e-03	-1.864861e-01	1.937929e-01
0.007003344482	-1.901394e-01	7.956568e-01	7.306811e-03	-1.864860e-01	1.937928e-01
0.007003567447	-1.901392e-01	7.956563e-01	7.306885e-03	-1.864858e-01	1.937927e-01
0.007003790412	-1.901391e-01	7.956558e-01	7.306960e-03	-1.864856e-01	1.937926e-01
0.007004013378	-1.901390e-01	7.956553e-01	7.307034e-03	-1.864854e-01	1.937925e-01
0.007004236343	-1.901388e-01	7.956548e-01	7.307109e-03	-1.864853e-01	1.937924e-01
0.007004459309	-1.901387e-01	7.956544e-01	7.307183e-03	-1.864851e-01	1.937923e-01
0.007004682274	-1.901386e-01	7.956539e-01	7.307258e-03	-1.864849e-01	1.937922e-01
0.00700490524	-1.901384e-01	7.956534e-01	7.307332e-03	-1.864848e-01	1.937921e-01
0.007005128205	-1.901383e-01	7.956529e-01	7.307406e-03	-1.864846e-01	1.937920e-01
0.007005351171	-1.901382e-01	7.956524e-01	7.307481e-03	-1.864844e-01	1.937919e-01
0.007005574136	-1.901380e-01	7.956519e-01	7.307555e-03	-1.864843e-01	1.937918e-01
0.007005797101	-1.901379e-01	7.956514e-01	7.307630e-03	-1.864841e-01	1.937917e-01
0.007006020067	-1.901378e-01	7.956509e-01	7.307704e-03	-1.864839e-01	1.937916e-01
0.007006243032	-1.901376e-01	7.956504e-01	7.307778e-03	-1.864837e-01	1.937915e-01
0.007006465998	-1.901375e-01	7.956499e-01	7.307853e-03	-1.864836e-01	1.937914e-01
0.007006688963	-1.901373e-01	7.956493e-01	7.307927e-03	-1.864834e-01	1.937913e-01
0.007006911929	-1.901372e-01	7.956488e-01	7.308001e-03	-1.864832e-01	1.937912e-01
0.007007134894	-1.901371e-01	7.956483e-01	7.308075e-03	-1.864830e-01	1.937911e-01
0.00700735786	-1.901369e-01	7.956477e-01	7.308149e-03	-1.864828e-01	1.937910e-01
0.007007580825	-1.901368e-01	7.956472e-01	7.308223e-03	-1.864827e-01	1.937909e-01
0.00700780379	-1.901366e-01	7.956467e-01	7.308297e-03	-1.864825e-01	1.937908e-01
0.007008026756	-1.901365e-01	7.956461e-01	7.308371e-03	-1.864823e-01	1.937907e-01
0.007008249721	-1.901363e-01	7.956455e-01	7.308445e-03	-1.864821e-01	1.937906e-01
0.007008472687	-1.901362e-01	7.956450e-01	7.308519e-03	-1.864819e-01	1.937905e-01
0.007008695652	-1.901361e-01	7.956444e-01	7.308593e-03	-1.864818e-01	1.937904e-01
0.007008918618	-1.901359e-01	7.956439e-01	7.308667e-03	-1.864816e-01	1.937903e-01
0.007009141583	-1.901358e-01	7.956433e-01	7.308741e-03	-1.864814e-01	1.937901e-01
0.007009364548	-1.901356e-01	7.956427e-01	7.308814e-03	-1.864812e-01	1.937900e-01
0.007009587514	-1.901355e-01	7.956422e-01	7.308888e-03	-1.864810e-01	1.937899e-01
0.007009810479	-1.901353e-01	7.956416e-01	7.308962e-03	-1.864809e-01	1.937898e-01
0.007010033445	-1.901352e-01	7.956410e-01	7.309035e-03	-1.864807e-01	1.937897e-01
0.00701025641	-1.901351e-01	7.956405e-01	7.309109e-03	-1.864805e-01	1.937896e-01
0.007010479376	-1.901349e-01	7.956399e-01	7.309183e-03	-1.864803e-01	1.937895e-01
0.007010702341	-1.901348e-01	7.956393e-01	7.309256e-03	-1.864802e-01	1.937894e-01
0.007010925307	-1.901346e-01	7.956388e-01	7.309330e-03	-1.864800e-01	1.937893e-01
0.007011148272	-1.901345e-01	7.956382e-01	7.309403e-03	-1.864798e-01	1.937892e-01
0.007011371237	-1.901344e-01	7.956376e-01	7.309477e-03	-1.864796e-01	1.937891e-01
0.007011594203	-1.901342e-01	7.956370e-01	7.309550e-03	-1.864795e-01	1.937890e-01
0.007011817168	-1.901341e-01	7.956365e-01	7.309624e-03	-1.864793e-01	1.937889e-01
0.007012040134	-1.901340e-01	7.956359e-01	7.309697e-03	-1.864791e-01	1.937888e-01
0.007012263099	-1.901338e-01	7.956353e-01	7.309771e-03	-1.864789e-01	1.937887e-01
0.007012486065	-1.901337e-01	7.956347e-01	7.309844e-03	-1.864788e-01	1.937886e-01
0.00701270903	-1.901335e-01	7.956341e-01	7.309917e-03	-1.864786e-01	1.937885e-01
0.007012931996	-1.901334e-01	7.956336e-01	7.309991e-03	-1.864784e-01	1.937884e-01
0.007013154961	-1.901333e-01	7.956330e-01	7.310064e-03	-1.864782e-01	1.937883e-01
0.007013377926	-1.901331e-01	7.956324e-01	7.310138e-03	-1.864781e-01	1.937882e-01
0.007013600892	-1.901330e-01	7.956318e-01	7.310211e-03	-1.864779e-01	1.937881e-01
0.007013823857	-1.901328e-01	7.956312e-01	7.310284e-03	-1.864777e-01	1.937880e-01
0.007014046823	-1.901327e-01	7.956306e-01	7.310357e-03	-1.864775e-01	1.937879e-01
0.007014269788	-1.901326e-01	7.956300e-01	7.310431e-03	-1.864774e-01	1.937878e-01
0.007014492754	-1.901324e-01	7.956294e-01	7.310504e-03	-1.864772e-01	1.937877e-01
0.007014715719	-1.901323e-01	7.956288e-01	7.310577e-03	-1.864770e-01	1.937876e-01
0.007014938685	-1.901322e-01	7.956282e-01	7.310650e-03	-1.864768e-01	1.937875e-01
0.00701516165	-1.901320e-01	7.956276e-01	7.310724e-03	-1.864767e-01	1.937874e-01
0.007015384615	-1.901319e-01	7.956270e-01	7.310797e-03	-1.864765e-01	1.937873e-01
0.007015607581	-1.901317e-01	7.956264e-01	7.310870e-03	-1.864763e-01	1.937872e-01
0.007015830546	-1.901316e-01	7.956258e-01	7.310943e-03	-1.864761e-01	1.937871e-01
0.007016053512	-1.901315e-01	7.956252e-01	7.311016e-03	-1.864760e-01	1.937870e-01
0.007016276477	-1.901313e-01	7.956245e-01	7.311089e-03	-1.864758e-01	1.937869e-01
0.007016499443	-1.901312e-01	7.956239e-01	7.311163e-03	-1.864756e-01	1.937868e-01
0.007016722408	-1.901311e-01	7.956233e-01	7.311236e-03	-1.864754e-01	1.937867e-01
0.007016945373	-1.901309e-01	7.956227e-01	7.311309e-03	-1.864753e-01	1.937866e-01
0.007017168339	-1.901308e-01	7.956221e-01	7.311382e-03	-1.864751e-01	1.937865e-01
0.007017391304	-1.901307e-01	7.956214e-01	7.311455e-03	-1.864749e-01	1.937864e-01
0.00701761427	-1.901305e-01	7.956208e-01	7.311528e-03	-1.864748e-01	1.937863e-01
0.007017837235	-1.901304e-01	7.956202e-01	7.311601e-03	-1.864746e-01	1.937862e-01
0.007018060201	-1.901302e-01	7.956196e-01	7.311674e-03	-1.864744e-01	1.937861e-01
0.007018283166	-1.901301e-01	7.956189e-01	7.311747e-03	-1.864742e-01	1.937860e-01
0.007018506132	-1.901300e-01	7.956183e-01	7.311820e-03	-1.864741e-01	1.937859e-01
0.007018729097	-1.901298e-01	7.956176e-01	7.311892e-03	-1.864739e-01	1.937858e-01
0.007018952062	-1.901297e-01	7.956170e-01	7.311965e-03	-1.864737e-01	1.937857e-01
0.007019175028	-1.901296e-01	7.956164e-01	7.312038e-03	-1.864735e-01	1.937856e-01
0.007019397993	-1.901294e-01	7.956157e-01	7.312111e-03	-1.864734e-01	1.937855e-01
0.007019620959	-1.901293e-01	7.956151e-01	7.312184e-03	-1.864732e-01	1.937854e-01
0.007019843924	-1.901292e-01	7.956144e-01	7.312257e-03	-1.864730e-01	1.937853e-01
0.00702006689	-1.901290e-01	7.956138e-01	7.312329e-03	-1.864729e-01	1.937852e-01
0.007020289855	-1.901289e-01	7.956131e-01	7.312402e-03	-1.864727e-01	1.937851e-01
0.007020512821	-1.901287e-01	7.956125e-01	7.312475e-03	-1.864725e-01	1.937850e-01
0.007020735786	-1.901286e-01	7.956118e-01	7.312547e-03	-1.864723e-01	1.937849e-01
0.007020958751	-1.901285e-01	7.956112e-01	7.312620e-03	-1.864722e-01	1.937848e-01
0.007021181717	-1.901283e-01	7.956105e-01	7.312693e-03	-1.864720e-01	1.937847e-01
0.007021404682	-1.901282e-01	7.956099e-01	7.312765e-03	-1.864718e-01	1.937846e-01
0.007021627648	-1.901281e-01	7.956092e-01	7.312838e-03	-1.864716e-01	1.937845e-01
0.007021850613	-1.901279e-01	7.956086e-01	7.312911e-03	-1.864715e-01	1.937844e-01
0.007022073579	-1.901278e-01	7.956079e-01	7.312983e-03	-1.864713e-01	1.937843e-01
0.007022296544	-1.901277e-01	7.956072e-01	7.313056e-03	-1.864711e-01	1.937842e-01
0.007022519509	-1.901275e-01	7.956066e-01	7.313128e-03	-1.864710e-01	1.937841e-01
0.007022742475	-1.901274e-01	7.956059e-01	7.313201e-03	-1.864708e-01	1.937840e-01
0.00702296544	-1.901273e-01	7.956052e-01	7.313273e-03	-1.864706e-01	1.937839e-01
0.007023188406	-1.901271e-01	7.956046e-01	7.313346e-03	-1.864704e-01	1.937838e-01
0.007023411371	-1.901270e-01	7.956039e-01	7.313418e-03	-1.864703e-01	1.937837e-01
0.007023634337	-1.901269e-01	7.956032e-01	7.313491e-03	-1.864701e-01	1.937836e-01
0.007023857302	-1.901267e-01	7.956026e-01	7.313563e-03	-1.864699e-01	1.937835e-01
0.007024080268	-1.901266e-01	7.956019e-01	7.313636e-03	-1.864698e-01	1.937834e-01
0.007024303233	-1.901264e-01	7.956012e-01	7.313708e-03	-1.864696e-01	1.937833e-01
0.007024526198	-1.901263e-01	7.956005e-01	7.313780e-03	-1.864694e-01	1.937832e-01
0.007024749164	-1.901262e-01	7.955999e-01	7.313853e-03	-1.864693e-01	1.937831e-01
0.007024972129	-1.901260e-01	7.955992e-01	7.313925e-03	-1.864691e-01	1.937830e-01
0.007025195095	-1.901259e-01	7.955985e-01	7.313997e-03	-1.864689e-01	1.937829e-01
0.00702541806	-1.901258e-01	7.955978e-01	7.314070e-03	-1.864687e-01	1.937828e-01
0.007025641026	-1.901257e-01	7.955971e-01	7.314142e-03	-1.864686e-01	1.937827e-01
0.007025863991	-1.901255e-01	7.955965e-01	7.314214e-03	-1.864684e-01	1.937826e-01
0.007026086957	-1.901254e-01	7.955958e-01	7.314287e-03	-1.864682e-01	1.937825e-01
0.007026309922	-1.901253e-01	7.955951e-01	7.314359e-03	-1.864681e-01	1.937824e-01
0.007026532887	-1.901251e-01	7.955944e-01	7.314431e-03	-1.864679e-01	1.937823e-01
0.007026755853	-1.901250e-01	7.955937e-01	7.314503e-03	-1.864677e-01	1.937822e-01
0.007026978818	-1.901249e-01	7.955930e-01	7.314575e-03	-1.864676e-01	1.937822e-01
0.007027201784	-1.901247e-01	7.955924e-01	7.314648e-03	-1.864674e-01	1.937821e-01
0.007027424749	-1.901246e-01	7.955917e-01	7.314720e-03	-1.864672e-01	1.937820e-01
0.007027647715	-1.901245e-01	7.955910e-01	7.314792e-03	-1.864671e-01	1.937819e-01
0.00702787068	-1.901244e-01	7.955903e-01	7.314864e-03	-1.864669e-01	1.937818e-01
0.007028093645	-1.901242e-01	7.955896e-01	7.314936e-03	-1.864668e-01	1.937817e-01
0.007028316611	-1.901241e-01	7.955889e-01	7.315008e-03	-1.864666e-01	1.937816e-01
0.007028539576	-1.901240e-01	7.955882e-01	7.315081e-03	-1.864664e-01	1.937815e-01
0.007028762542	-1.901238e-01	7.955875e-01	7.315153e-03	-1.864663e-01	1.937814e-01
0.007028985507	-1.901237e-01	7.955868e-01	7.315225e-03	-1.864661e-01	1.937813e-01
0.007029208182	-1.901236e-01	7.955861e-01	7.315297e-03	-1.864659e-01	1.937812e-01
0.007029430857	-1.901234e-01	7.955854e-01	7.315369e-03	-1.864658e-01	1.937811e-01
0.007029653533	-1.901233e-01	7.955847e-01	7.315441e-03	-1.864656e-01	1.937810e-01
0.007029876208	-1.901232e-01	7.955840e-01	7.315513e-03	-1.864654e-01	1.937809e-01
0.007030098883	-1.901231e-01	7.955833e-01	7.315584e-03	-1.864653e-01	1.937808e-01
0.007030321558	-1.901229e-01	7.955826e-01	7.315656e-03	-1.864651e-01	1.937808e-01
0.007030544233	-1.901228e-01	7.955819e-01	7.315728e-03	-1.864649e-01	1.937807e-01
0.007030766908	-1.901227e-01	7.955812e-01	7.315800e-03	-1.864648e-01	1.937806e-01
0.007030989583	-1.901225e-01	7.955805e-01	7.315872e-03	-1.864646e-01	1.937805e-01
0.007031212258	-1.901224e-01	7.955798e-01	7.315944e-03	-1.864644e-01	1.937804e-01
0.007031434934	-1.901223e-01	7.955791e-01	7.316015e-03	-1.864643e-01	1.937803e-01
0.007031657609	-1.901222e-01	7.955784e-01	7.316087e-03	-1.864641e-01	1.937802e-01
0.007031880284	-1.901220e-01	7.955777e-01	7.316159e-03	-1.864640e-01	1.937801e-01
0.007032102959	-1.901219e-01	7.955770e-01	7.316231e-03	-1.864638e-01	1.937800e-01
0.007032325634	-1.901218e-01	7.955763e-01	7.316303e-03	-1.864636e-01	1.937799e-01
0.007032548309	-1.901217e-01	7.955755e-01	7.316375e-03	-1.864635e-01	1.937799e-01
0.007032770984	-1.901215e-01	7.955748e-01	7.316446e-03	-1.864633e-01	1.937798e-01
0.007032993659	-1.901214e-01	7.955741e-01	7.316518e-03	-1.864632e-01	1.937797e-01
0.007033216335	-1.901213e-01	7.955734e-01	7.316590e-03	-1.864630e-01	1.937796e-01
0.00703343901	-1.901212e-01	7.955727e-01	7.316662e-03	-1.864628e-01	1.937795e-01
0.007033661685	-1.901210e-01	7.955720e-01	7.316733e-03	-1.864627e-01	1.937794e-01
0.00703388436	-1.901209e-01	7.955713e-01	7.316805e-03	-1.864625e-01	1.937793e-01
0.007034107035	-1.901208e-01	7.955705e-01	7.316877e-03	-1.864624e-01	1.937792e-01
0.00703432971	-1.901207e-01	7.955698e-01	7.316948e-03	-1.864622e-01	1.937791e-01
0.007034552385	-1.901205e-01	7.955691e-01	7.317020e-03	-1.864620e-01	1.937791e-01
0.00703477506	-1.901204e-01	7.955684e-01	7.317092e-03	-1.864619e-01	1.937790e-01
0.007034997736	-1.901203e-01	7.955676e-01	7.317163e-03	-1.864617e-01	1.937789e-01
0.007035220411	-1.901202e-01	7.955669e-01	7.317235e-03	-1.864616e-01	1.937788e-01
0.007035443086	-1.901200e-01	7.955662e-01	7.317307e-03	-1.864614e-01	1.937787e-01
0.007035665761	-1.901199e-01	7.955654e-01	7.317378e-03	-1.864612e-01	1.937786e-01
0.007035888436	-1.901198e-01	7.955647e-01	7.317450e-03	-1.864611e-01	1.937785e-01
0.007036111111	-1.901197e-01	7.955640e-01	7.317521e-03	-1.864609e-01	1.937784e-01
0.007036333786	-1.901195e-01	7.955632e-01	7.317593e-03	-1.864607e-01	1.937783e-01
0.007036556461	-1.901194e-01	7.955625e-01	7.317664e-03	-1.864606e-01	1.937782e-01
0.007036779136	-1.901193e-01	7.955617e-01	7.317736e-03	-1.864604e-01	1.937782e-01
0.007037001812	-1.901192e-01	7.955610e-01	7.317807e-03	-1.864603e-01	1.937781e-01
0.007037224487	-1.901190e-01	7.955602e-01	7.317879e-03	-1.864601e-01	1.937780e-01
0.007037447162	-1.901189e-01	7.955595e-01	7.317950e-03	-1.864599e-01	1.937779e-01
0.007037669837	-1.901188e-01	7.955587e-01	7.318021e-03	-1.864598e-01	1.937778e-01
0.007037892512	-1.901187e-01	7.955580e-01	7.318093e-03	-1.864596e-01	1.937777e-01
0.007038115187	-1.901185e-01	7.955572e-01	7.318164e-03	-1.864595e-01	1.937776e-01
0.007038337862	-1.901184e-01	7.955565e-01	7.318235e-03	-1.864593e-01	1.937775e-01
0.007038560537	-1.901183e-01	7.955557e-01	7.318307e-03	-1.864591e-01	1.937774e-01
0.007038783213	-1.901182e-01	7.955550e-01	7.318378e-03	-1.864590e-01	1.937773e-01
0.007039005888	-1.901180e-01	7.955542e-01	7.318449e-03	-1.864588e-01	1.937773e-01
0.007039228563	-1.901179e-01	7.955535e-01	7.318521e-03	-1.864587e-01	1.937772e-01
0.007039451238	-1.901178e-01	7.955527e-01	7.318592e-03	-1.864585e-01	1.937771e-01
0.007039673913	-1.901177e-01	7.955520e-01	7.318663e-03	-1.864583e-01	1.937770e-01
0.007039896588	-1.901175e-01	7.955512e-01	7.318734e-03	-1.864582e-01	1.937769e-01
0.007040119263	-1.901174e-01	7.955505e-01	7.318805e-03	-1.864580e-01	1.937768e-01
0.007040341938	-1.901173e-01	7.955497e-01	7.318877e-03	-1.864579e-01	1.937767e-01
0.007040564614	-1.901172e-01	7.955490e-01	7.318948e-03	-1.864577e-01	1.937766e-01
0.007040787289	-1.901170e-01	7.955482e-01	7.319019e-03	-1.864575e-01	1.937766e-01
0.007041009964	-1.901169e-01	7.955475e-01	7.319090e-03	-1.864574e-01	1.937765e-01
0.007041232639	-1.901168e-01	7.955467e-01	7.319161e-03	-1.864572e-01	1.937764e-01
0.007041455314	-1.901167e-01	7.955460e-01	7.319232e-03	-1.864571e-01	1.937763e-01
0.007041677989	-1.901166e-01	7.955452e-01	7.319304e-03	-1.864569e-01	1.937762e-01
0.007041900664	-1.901164e-01	7.955445e-01	7.319375e-03	-1.864568e-01	1.937761e-01
0.007042123339	-1.901163e-01	7.955437e-01	7.319446e-03	-1.864566e-01	1.937760e-01
0.007042346014	-1.901162e-01	7.955430e-01	7.319517e-03	-1.864564e-01	1.937760e-01
0.00704256869	-1.901161e-01	7.955422e-01	7.319588e-03	-1.864563e-01	1.937759e-01
0.007042791365	-1.901160e-01	7.955414e-01	7.319659e-03	-1.864561e-01	1.937758e-01
0.00704301404	-1.901158e-01	7.955407e-01	7.319730e-03	-1.864560e-01	1.937757e-01
0.007043236715	-1.901157e-01	7.955399e-01	7.319801e-03	-1.864558e-01	1.937756e-01
0.00704345939	-1.901156e-01	7.955392e-01	7.319872e-03	-1.864557e-01	1.937755e-01
0.007043682065	-1.901155e-01	7.955384e-01	7.319943e-03	-1.864555e-01	1.937755e-01
0.00704390474	-1.901154e-01	7.955376e-01	7.320014e-03	-1.864554e-01	1.937754e-01
0.007044127415	-1.901152e-01	7.955369e-01	7.320085e-03	-1.864552e-01	1.937753e-01
0.007044350091	-1.901151e-01	7.955361e-01	7.320156e-03	-1.864550e-01	1.937752e-01
0.007044572766	-1.901150e-01	7.955354e-01	7.320227e-03	-1.864549e-01	1.937751e-01
0.007044795441	-1.901149e-01	7.955346e-01	7.320298e-03	-1.864547e-01	1.937750e-01
0.007045018116	-1.901148e-01	7.955338e-01	7.320369e-03	-1.864546e-01	1.937750e-01
0.007045240791	-1.901147e-01	7.955331e-01	7.320440e-03	-1.864544e-01	1.937749e-01
0.007045463466	-1.901145e-01	7.955323e-01	7.320511e-03	-1.864543e-01	1.937748e-01
0.007045686141	-1.901144e-01	7.955316e-01	7.320582e-03	-1.864541e-01	1.937747e-01
0.007045908816	-1.901143e-01	7.955308e-01	7.320653e-03	-1.864540e-01	1.937746e-01
0.007046131492	-1.901142e-01	7.955300e-01	7.320724e-03	-1.864538e-01	1.937745e-01
0.007046354167	-1.901141e-01	7.955293e-01	7.320795e-03	-1.864537e-01	1.937745e-01
0.007046576842	-1.901140e-01	7.955285e-01	7.320866e-03	-1.864535e-01	1.937744e-01
0.007046799517	-1.901138e-01	7.955277e-01	7.320937e-03	-1.864534e-01	1.937743e-01
0.007047022192	-1.901137e-01	7.955270e-01	7.321008e-03	-1.864532e-01	1.937742e-01
0.007047244867	-1.901136e-01	7.955262e-01	7.321079e-03	-1.864531e-01	1.937741e-01
0.007047467542	-1.901135e-01	7.955254e-01	7.321150e-03	-1.864529e-01	1.937741e-01
0.007047690217	-1.901134e-01	7.955247e-01	7.321221e-03	-1.864528e-01	1.937740e-01
0.007047912893	-1.901133e-01	7.955239e-01	7.321292e-03	-1.864526e-01	1.937739e-01
0.007048135568	-1.901132e-01	7.955231e-01	7.321363e-03	-1.864525e-01	1.937738e-01
0.007048358243	-1.901130e-01	7.955223e-01	7.321433e-03	-1.864523e-01	1.937738e-01
0.007048580918	-1.901129e-01	7.955216e-01	7.321504e-03	-1.864522e-01	1.937737e-01
0.007048803593	-1.901128e-01	7.955208e-01	7.321575e-03	-1.864520e-01	1.937736e-01
0.007049026268	-1.901127e-01	7.955200e-01	7.321646e-03	-1.864519e-01	1.937735e-01
0.007049248943	-1.901126e-01	7.955192e-01	7.321717e-03	-1.864517e-01	1.937734e-01
0.007049471618	-1.901125e-01	7.955185e-01	7.321788e-03	-1.864516e-01	1.937734e-01
0.007049694293	-1.901124e-01	7.955177e-01	7.321859e-03	-1.864514e-01	1.937733e-01
0.007049916969	-1.901122e-01	7.955169e-01	7.321930e-03	-1.864513e-01	1.937732e-01
0.007050139644	-1.901121e-01	7.955161e-01	7.322000e-03	-1.864511e-01	1.937731e-01
0.007050362319	-1.901120e-01	7.955153e-01	7.322071e-03	-1.864510e-01	1.937731e-01
0.007050584994	-1.901119e-01	7.955146e-01	7.322142e-03	-1.864508e-01	1.937730e-01
0.007050807669	-1.901118e-01	7.955138e-01	7.322213e-03	-1.864507e-01	1.937729e-01
0.007051030344	-1.901117e-01	7.955130e-01	7.322284e-03	-1.864505e-01	1.937728e-01
0.007051253019	-1.901116e-01	7.955122e-01	7.322355e-03	-1.864504e-01	1.937727e-01
0.007051475694	-1.901115e-01	7.955114e-01	7.322425e-03	-1.864502e-01	1.937727e-01
0.00705169837	-1.901113e-01	7.955106e-01	7.322496e-03	-1.864501e-01	1.937726e-01
0.007051921045	-1.901112e-01	7.955098e-01	7.322567e-03	-1.864500e-01	1.937725e-01
0.00705214372	-1.901111e-01	7.955091e-01	7.322638e-03	-1.864498e-01	1.937724e-01
0.007052366395	-1.901110e-01	7.955083e-01	7.322709e-03	-1.864497e-01	1.937724e-01
0.00705258907	-1.901109e-01	7.955075e-01	7.322779e-03	-1.864495e-01	1.937723e-01
0.007052811745	-1.901108e-01	7.955067e-01	7.322850e-03	-1.864494e-01	1.937722e-01
0.00705303442	-1.901107e-01	7.955059e-01	7.322921e-03	-1.864492e-01	1.937721e-01
0.007053257095	-1.901106e-01	7.955051e-01	7.322992e-03	-1.864491e-01	1.937721e-01
0.007053479771	-1.901105e-01	7.955043e-01	7.323062e-03	-1.864489e-01	1.937720e-01
0.007053702446	-1.901103e-01	7.955035e-01	7.323133e-03	-1.864488e-01	1.937719e-01
0.007053925121	-1.901102e-01	7.955027e-01	7.323204e-03	-1.864486e-01	1.937718e-01
0.007054147796	-1.901101e-01	7.955019e-01	7.323275e-03	-1.864485e-01	1.937718e-01
0.007054370471	-1.901100e-01	7.955011e-01	7.323345e-03	-1.864483e-01	1.937717e-01
0.007054593146	-1.901099e-01	7.955003e-01	7.323416e-03	-1.864482e-01	1.937716e-01
0.007054815821	-1.901098e-01	7.954995e-01	7.323487e-03	-1.864480e-01	1.937715e-01
0.007055038496	-1.901097e-01	7.954986e-01	7.323557e-03	-1.864479e-01	1.937715e-01
0.007055261171	-1.901096e-01	7.954978e-01	7.323628e-03	-1.864477e-01	1.937714e-01
0.007055483847	-1.901094e-01	7.954970e-01	7.323699e-03	-1.864476e-01	1.937713e-01
0.007055706522	-1.901093e-01	7.954962e-01	7.323770e-03	-1.864475e-01	1.937712e-01
0.007055929197	-1.901092e-01	7.954954e-01	7.323840e-03	-1.864473e-01	1.937711e-01
0.007056151872	-1.901091e-01	7.954946e-01	7.323911e-03	-1.864472e-01	1.937711e-01
0.007056374547	-1.901090e-01	7.954938e-01	7.323981e-03	-1.864470e-01	1.937710e-01
0.007056597222	-1.901089e-01	7.954929e-01	7.324052e-03	-1.864469e-01	1.937709e-01
0.007056819897	-1.901088e-01	7.954921e-01	7.324123e-03	-1.864467e-01	1.937708e-01
0.007057042572	-1.901087e-01	7.954913e-01	7.324193e-03	-1.864466e-01	1.937708e-01
0.007057265248	-1.901086e-01	7.954905e-01	7.324264e-03	-1.864464e-01	1.937707e-01
0.007057487923	-1.901084e-01	7.954897e-01	7.324335e-03	-1.864463e-01	1.937706e-01
0.007057710598	-1.901083e-01	7.954888e-01	7.324405e-03	-1.864461e-01	1.937705e-01
0.007057933273	-1.901082e-01	7.954880e-01	7.324476e-03	-1.864460e-01	1.937705e-01
0.007058155948	-1.901081e-01	7.954872e-01	7.324546e-03	-1.864458e-01	1.937704e-01
0.007058378623	-1.901080e-01	7.954863e-01	7.324617e-03	-1.864457e-01	1.937703e-01
0.007058601298	-1.901079e-01	7.954855e-01	7.324687e-03	-1.864455e-01	1.937702e-01
0.007058823973	-1.901078e-01	7.954847e-01	7.324758e-03	-1.864454e-01	1.937702e-01
0.007059046649	-1.901077e-01	7.954838e-01	7.324829e-03	-1.864453e-01	1.937701e-01
0.007059269324	-1.901076e-01	7.954830e-01	7.324899e-03	-1.864451e-01	1.937700e-01
0.007059491999	-1.901074e-01	7.954822e-01	7.324970e-03	-1.864450e-01	1.937699e-01
0.007059714674	-1.901073e-01	7.954813e-01	7.325040e-03	-1.864448e-01	1.937699e-01
0.007059937349	-1.901072e-01	7.954805e-01	7.325111e-03	-1.864447e-01	1.937698e-01
0.007060160024	-1.901071e-01	7.954797e-01	7.325181e-03	-1.864445e-01	1.937697e-01
0.007060382699	-1.901070e-01	7.954788e-01	7.325252e-03	-1.864444e-01	1.937696e-01
0.007060605374	-1.901069e-01	7.954780e-01	7.325322e-03	-1.864442e-01	1.937695e-01
0.00706082805	-1.901068e-01	7.954771e-01	7.325393e-03	-1.864441e-01	1.937695e-01
0.007061050725	-1.901067e-01	7.954763e-01	7.325463e-03	-1.864439e-01	1.937694e-01
0.0070612734 	-1.901066e-01	7.954754e-01	7.325533e-03	-1.864438e-01	1.937693e-01
0.007061496075	-1.901064e-01	7.954746e-01	7.325604e-03	-1.864436e-01	1.937692e-01
0.00706171875	-1.901063e-01	7.954737e-01	7.325674e-03	-1.864435e-01	1.937692e-01
0.007061941425	-1.901062e-01	7.954729e-01	7.325745e-03	-1.864433e-01	1.937691e-01
0.0070621641 	-1.901061e-01	7.954720e-01	7.325815e-03	-1.864432e-01	1.937690e-01
0.007062386775	-1.901060e-01	7.954712e-01	7.325886e-03	-1.864431e-01	1.937689e-01
0.00706260945	-1.901059e-01	7.954703e-01	7.325956e-03	-1.864429e-01	1.937689e-01
0.007062832126	-1.901058e-01	7.954695e-01	7.326027e-03	-1.864428e-01	1.937688e-01
0.007063054801	-1.901057e-01	7.954686e-01	7.326097e-03	-1.864426e-01	1.937687e-01
0.007063277476	-1.901056e-01	7.954678e-01	7.326167e-03	-1.864425e-01	1.937686e-01
0.007063500151	-1.901054e-01	7.954669e-01	7.326238e-03	-1.864423e-01	1.937686e-01
0.007063722826	-1.901053e-01	7.954661e-01	7.326308e-03	-1.864422e-01	1.937685e-01
0.007063945501	-1.901052e-01	7.954652e-01	7.326379e-03	-1.864420e-01	1.937684e-01
0.007064168176	-1.901051e-01	7.954643e-01	7.326449e-03	-1.864419e-01	1.937683e-01
0.007064390851	-1.901050e-01	7.954635e-01	7.326519e-03	-1.864417e-01	1.937683e-01
0.007064613527	-1.901049e-01	7.954626e-01	7.326590e-03	-1.864416e-01	1.937682e-01
0.007064836202	-1.901048e-01	7.954618e-01	7.326660e-03	-1.864415e-01	1.937681e-01
0.007065058877	-1.901047e-01	7.954609e-01	7.326731e-03	-1.864413e-01	1.937680e-01
0.007065281552	-1.901046e-01	7.954600e-01	7.326801e-03	-1.864412e-01	1.937680e-01
0.007065504227	-1.901045e-01	7.954592e-01	7.326871e-03	-1.864410e-01	1.937679e-01
0.007065726902	-1.901043e-01	7.954583e-01	7.326942e-03	-1.864409e-01	1.937678e-01
0.007065949577	-1.901042e-01	7.954574e-01	7.327012e-03	-1.864407e-01	1.937677e-01
0.007066172252	-1.901041e-01	7.954565e-01	7.327083e-03	-1.864406e-01	1.937677e-01
0.007066394928	-1.901040e-01	7.954557e-01	7.327153e-03	-1.864404e-01	1.937676e-01
0.007066617603	-1.901039e-01	7.954548e-01	7.327223e-03	-1.864403e-01	1.937675e-01
0.007066840278	-1.901038e-01	7.954539e-01	7.327294e-03	-1.864402e-01	1.937674e-01
0.007067062953	-1.901037e-01	7.954530e-01	7.327364e-03	-1.864400e-01	1.937674e-01
0.007067285628	-1.901036e-01	7.954522e-01	7.327434e-03	-1.864399e-01	1.937673e-01
0.007067508303	-1.901035e-01	7.954513e-01	7.327505e-03	-1.864397e-01	1.937672e-01
0.007067730978	-1.901034e-01	7.954504e-01	7.327575e-03	-1.864396e-01	1.937671e-01
0.007067953653	-1.901033e-01	7.954495e-01	7.327646e-03	-1.864394e-01	1.937671e-01
0.007068175954	-1.901031e-01	7.954486e-01	7.327716e-03	-1.864393e-01	1.937670e-01
0.007068398254	-1.901030e-01	7.954477e-01	7.327786e-03	-1.864391e-01	1.937669e-01
0.007068620554	-1.901029e-01	7.954468e-01	7.327856e-03	-1.864390e-01	1.937668e-01
0.007068842854	-1.901028e-01	7.954459e-01	7.327926e-03	-1.864388e-01	1.937668e-01
0.007069065155	-1.901027e-01	7.954450e-01	7.327996e-03	-1.864387e-01	1.937667e-01
0.007069287455	-1.901026e-01	7.954441e-01	7.328066e-03	-1.864385e-01	1.937666e-01
0.007069509755	-1.901025e-01	7.954432e-01	7.328137e-03	-1.864384e-01	1.937665e-01
0.007069732055	-1.901024e-01	7.954424e-01	7.328207e-03	-1.864382e-01	1.937665e-01
0.007069954356	-1.901022e-01	7.954415e-01	7.328277e-03	-1.864381e-01	1.937664e-01
0.007070176656	-1.901021e-01	7.954406e-01	7.328347e-03	-1.864380e-01	1.937663e-01
0.007070398956	-1.901020e-01	7.954397e-01	7.328417e-03	-1.864378e-01	1.937662e-01
0.007070621256	-1.901019e-01	7.954388e-01	7.328488e-03	-1.864377e-01	1.937662e-01
0.007070843557	-1.901018e-01	7.954379e-01	7.328558e-03	-1.864375e-01	1.937661e-01
0.007071065857	-1.901017e-01	7.954370e-01	7.328628e-03	-1.864374e-01	1.937660e-01
0.007071288157	-1.901016e-01	7.954361e-01	7.328698e-03	-1.864373e-01	1.937660e-01
0.007071510457	-1.901015e-01	7.954352e-01	7.328768e-03	-1.864371e-01	1.937659e-01
0.007071732758	-1.901014e-01	7.954344e-01	7.328839e-03	-1.864370e-01	1.937658e-01
0.007071955058	-1.901013e-01	7.954335e-01	7.328909e-03	-1.864368e-01	1.937657e-01
0.007072177358	-1.901012e-01	7.954326e-01	7.328979e-03	-1.864367e-01	1.937657e-01
0.007072399658	-1.901011e-01	7.954317e-01	7.329049e-03	-1.864366e-01	1.937656e-01
0.007072621959	-1.901010e-01	7.954308e-01	7.329120e-03	-1.864364e-01	1.937655e-01
0.007072844259	-1.901009e-01	7.954299e-01	7.329190e-03	-1.864363e-01	1.937655e-01
0.007073066559	-1.901008e-01	7.954290e-01	7.329260e-03	-1.864361e-01	1.937654e-01
0.007073288859	-1.901007e-01	7.954281e-01	7.329330e-03	-1.864360e-01	1.937653e-01
0.00707351116	-1.901006e-01	7.954272e-01	7.329400e-03	-1.864359e-01	1.937653e-01
0.00707373346	-1.901005e-01	7.954263e-01	7.329471e-03	-1.864357e-01	1.937652e-01
0.00707395576	-1.901003e-01	7.954253e-01	7.329541e-03	-1.864356e-01	1.937651e-01
0.00707417806	-1.901002e-01	7.954244e-01	7.329611e-03	-1.864354e-01	1.937650e-01
0.007074400361	-1.901001e-01	7.954235e-01	7.329682e-03	-1.864353e-01	1.937650e-01
0.007074622661	-1.901000e-01	7.954226e-01	7.329752e-03	-1.864352e-01	1.937649e-01
0.007074844961	-1.900999e-01	7.954217e-01	7.329822e-03	-1.864350e-01	1.937648e-01
0.007075067261	-1.900998e-01	7.954208e-01	7.329892e-03	-1.864349e-01	1.937648e-01
0.007075289562	-1.900997e-01	7.954198e-01	7.329962e-03	-1.864347e-01	1.937647e-01
0.007075511862	-1.900996e-01	7.954189e-01	7.330033e-03	-1.864346e-01	1.937646e-01
0.007075734162	-1.900995e-01	7.954180e-01	7.330103e-03	-1.864344e-01	1.937645e-01
0.007075956462	-1.900994e-01	7.954171e-01	7.330173e-03	-1.864343e-01	1.937645e-01
0.007076178763	-1.900993e-01	7.954161e-01	7.330243e-03	-1.864342e-01	1.937644e-01
0.007076401063	-1.900992e-01	7.954152e-01	7.330313e-03	-1.864340e-01	1.937643e-01
0.007076623363	-1.900991e-01	7.954143e-01	7.330384e-03	-1.864339e-01	1.937643e-01
0.007076845663	-1.900990e-01	7.954133e-01	7.330454e-03	-1.864337e-01	1.937642e-01
0.007077067964	-1.900989e-01	7.954124e-01	7.330524e-03	-1.864336e-01	1.937641e-01
0.007077290264	-1.900987e-01	7.954115e-01	7.330594e-03	-1.864334e-01	1.937640e-01
0.007077512564	-1.900986e-01	7.954105e-01	7.330664e-03	-1.864333e-01	1.937640e-01
0.007077734864	-1.900985e-01	7.954096e-01	7.330735e-03	-1.864332e-01	1.937639e-01
0.007077957164	-1.900984e-01	7.954087e-01	7.330805e-03	-1.864330e-01	1.937638e-01
0.007078179465	-1.900983e-01	7.954077e-01	7.330875e-03	-1.864329e-01	1.937638e-01
0.007078401765	-1.900982e-01	7.954068e-01	7.330945e-03	-1.864327e-01	1.937637e-01
0.007078624065	-1.900981e-01	7.954058e-01	7.331015e-03	-1.864326e-01	1.937636e-01
0.007078846365	-1.900980e-01	7.954049e-01	7.331086e-03	-1.864325e-01	1.937635e-01
0.007079068666	-1.900979e-01	7.954040e-01	7.331156e-03	-1.864323e-01	1.937635e-01
0.007079290966	-1.900978e-01	7.954030e-01	7.331226e-03	-1.864322e-01	1.937634e-01
0.007079513266	-1.900977e-01	7.954021e-01	7.331296e-03	-1.864320e-01	1.937633e-01
0.007079735566	-1.900976e-01	7.954011e-01	7.331367e-03	-1.864319e-01	1.937633e-01
0.007079957867	-1.900975e-01	7.954002e-01	7.331437e-03	-1.864318e-01	1.937632e-01
0.007080180167	-1.900974e-01	7.953992e-01	7.331507e-03	-1.864316e-01	1.937631e-01
0.007080402467	-1.900973e-01	7.953983e-01	7.331577e-03	-1.864315e-01	1.937631e-01