# Force coefficients
# liftDir    : (0.000000e+00 1.000000e+00 0.000000e+00)
# dragDir    : (1.000000e+00 0.000000e+00 0.000000e+00)
# pitchAxis  : (0.000000e+00 0.000000e+00 1.000000e+00)
# magUInf    : 4.440000e+03
# lRef       : 1.998074e+00
# Aref       : 1.998074e-02
# CofR       : (1.500000e+00 0.000000e+00 0.000000e+00)
#            
# Time       	Cm           	Cd           	Cl           	Cl(f)        	Cl(r)        
0.005000220264	-1.909713e-01	7.961880e-01	6.933505e-03	-1.875045e-01	1.944381e-01
0.005000440529	-1.909711e-01	7.961882e-01	6.933668e-03	-1.875043e-01	1.944379e-01
0.00500066055	-1.909709e-01	7.961883e-01	6.933831e-03	-1.875040e-01	1.944378e-01
0.005000880572	-1.909707e-01	7.961884e-01	6.933994e-03	-1.875037e-01	1.944377e-01
0.005001100593	-1.909705e-01	7.961885e-01	6.934157e-03	-1.875034e-01	1.944376e-01
0.005001320615	-1.909703e-01	7.961887e-01	6.934321e-03	-1.875031e-01	1.944375e-01
0.005001540636	-1.909701e-01	7.961888e-01	6.934484e-03	-1.875029e-01	1.944373e-01
0.005001760657	-1.909699e-01	7.961890e-01	6.934648e-03	-1.875026e-01	1.944372e-01
0.005001980679	-1.909697e-01	7.961891e-01	6.934812e-03	-1.875023e-01	1.944371e-01
0.0050022007 	-1.909695e-01	7.961893e-01	6.934976e-03	-1.875020e-01	1.944370e-01
0.005002420722	-1.909693e-01	7.961894e-01	6.935140e-03	-1.875018e-01	1.944369e-01
0.005002640743	-1.909692e-01	7.961895e-01	6.935303e-03	-1.875015e-01	1.944368e-01
0.005002860765	-1.909690e-01	7.961897e-01	6.935467e-03	-1.875012e-01	1.944367e-01
0.005003080786	-1.909688e-01	7.961898e-01	6.935630e-03	-1.875009e-01	1.944366e-01
0.005003300808	-1.909686e-01	7.961899e-01	6.935794e-03	-1.875007e-01	1.944365e-01
0.005003520829	-1.909684e-01	7.961901e-01	6.935957e-03	-1.875004e-01	1.944363e-01
0.005003740851	-1.909682e-01	7.961902e-01	6.936121e-03	-1.875001e-01	1.944362e-01
0.005003960872	-1.909680e-01	7.961903e-01	6.936284e-03	-1.874998e-01	1.944361e-01
0.005004180894	-1.909678e-01	7.961904e-01	6.936447e-03	-1.874995e-01	1.944360e-01
0.005004400915	-1.909676e-01	7.961905e-01	6.936610e-03	-1.874993e-01	1.944359e-01
0.005004620937	-1.909674e-01	7.961906e-01	6.936774e-03	-1.874990e-01	1.944357e-01
0.005004840958	-1.909671e-01	7.961907e-01	6.936937e-03	-1.874987e-01	1.944356e-01
0.005005060979	-1.909669e-01	7.961907e-01	6.937100e-03	-1.874984e-01	1.944355e-01
0.005005281001	-1.909667e-01	7.961908e-01	6.937263e-03	-1.874981e-01	1.944354e-01
0.005005501022	-1.909665e-01	7.961909e-01	6.937427e-03	-1.874978e-01	1.944352e-01
0.005005721044	-1.909663e-01	7.961909e-01	6.937590e-03	-1.874975e-01	1.944351e-01
0.005005941065	-1.909661e-01	7.961910e-01	6.937753e-03	-1.874972e-01	1.944350e-01
0.005006161087	-1.909659e-01	7.961910e-01	6.937916e-03	-1.874969e-01	1.944348e-01
0.005006381108	-1.909657e-01	7.961910e-01	6.938080e-03	-1.874966e-01	1.944347e-01
0.00500660113	-1.909654e-01	7.961911e-01	6.938243e-03	-1.874963e-01	1.944346e-01
0.005006821151	-1.909652e-01	7.961911e-01	6.938406e-03	-1.874960e-01	1.944344e-01
0.005007041173	-1.909650e-01	7.961911e-01	6.938569e-03	-1.874957e-01	1.944343e-01
0.005007261194	-1.909648e-01	7.961911e-01	6.938732e-03	-1.874954e-01	1.944341e-01
0.005007481216	-1.909645e-01	7.961911e-01	6.938895e-03	-1.874951e-01	1.944340e-01
0.005007701237	-1.909643e-01	7.961911e-01	6.939059e-03	-1.874948e-01	1.944339e-01
0.005007921259	-1.909641e-01	7.961911e-01	6.939222e-03	-1.874945e-01	1.944337e-01
0.00500814128	-1.909639e-01	7.961911e-01	6.939385e-03	-1.874942e-01	1.944336e-01
0.005008361301	-1.909636e-01	7.961910e-01	6.939548e-03	-1.874939e-01	1.944334e-01
0.005008581323	-1.909634e-01	7.961910e-01	6.939711e-03	-1.874935e-01	1.944333e-01
0.005008801344	-1.909632e-01	7.961909e-01	6.939874e-03	-1.874932e-01	1.944331e-01
0.005009021366	-1.909629e-01	7.961909e-01	6.940037e-03	-1.874929e-01	1.944330e-01
0.005009241387	-1.909627e-01	7.961908e-01	6.940199e-03	-1.874926e-01	1.944328e-01
0.005009461409	-1.909625e-01	7.961908e-01	6.940362e-03	-1.874923e-01	1.944326e-01
0.00500968143	-1.909622e-01	7.961907e-01	6.940525e-03	-1.874920e-01	1.944325e-01
0.005009901452	-1.909620e-01	7.961906e-01	6.940688e-03	-1.874916e-01	1.944323e-01
0.005010121473	-1.909617e-01	7.961905e-01	6.940851e-03	-1.874913e-01	1.944322e-01
0.005010341495	-1.909615e-01	7.961904e-01	6.941014e-03	-1.874910e-01	1.944320e-01
0.005010561516	-1.909613e-01	7.961903e-01	6.941177e-03	-1.874907e-01	1.944318e-01
0.005010781538	-1.909610e-01	7.961902e-01	6.941339e-03	-1.874903e-01	1.944317e-01
0.005011001559	-1.909608e-01	7.961901e-01	6.941502e-03	-1.874900e-01	1.944315e-01
0.005011221581	-1.909605e-01	7.961900e-01	6.941665e-03	-1.874897e-01	1.944313e-01
0.005011441602	-1.909603e-01	7.961899e-01	6.941828e-03	-1.874893e-01	1.944312e-01
0.005011661623	-1.909600e-01	7.961897e-01	6.941990e-03	-1.874890e-01	1.944310e-01
0.005011881645	-1.909598e-01	7.961896e-01	6.942153e-03	-1.874887e-01	1.944308e-01
0.005012101666	-1.909595e-01	7.961895e-01	6.942316e-03	-1.874883e-01	1.944307e-01
0.005012321688	-1.909592e-01	7.961893e-01	6.942478e-03	-1.874880e-01	1.944305e-01
0.005012541709	-1.909590e-01	7.961891e-01	6.942641e-03	-1.874877e-01	1.944303e-01
0.005012761731	-1.909587e-01	7.961890e-01	6.942804e-03	-1.874873e-01	1.944301e-01
0.005012981752	-1.909585e-01	7.961888e-01	6.942966e-03	-1.874870e-01	1.944299e-01
0.005013201774	-1.909582e-01	7.961886e-01	6.943129e-03	-1.874866e-01	1.944298e-01
0.005013421795	-1.909579e-01	7.961884e-01	6.943291e-03	-1.874863e-01	1.944296e-01
0.005013641817	-1.909577e-01	7.961882e-01	6.943454e-03	-1.874859e-01	1.944294e-01
0.005013861838	-1.909574e-01	7.961880e-01	6.943616e-03	-1.874856e-01	1.944292e-01
0.00501408186	-1.909571e-01	7.961878e-01	6.943778e-03	-1.874852e-01	1.944290e-01
0.005014301881	-1.909569e-01	7.961875e-01	6.943941e-03	-1.874849e-01	1.944288e-01
0.005014521903	-1.909566e-01	7.961873e-01	6.944103e-03	-1.874845e-01	1.944286e-01
0.005014741924	-1.909563e-01	7.961871e-01	6.944266e-03	-1.874842e-01	1.944284e-01
0.005014961946	-1.909560e-01	7.961868e-01	6.944428e-03	-1.874838e-01	1.944282e-01
0.005015181967	-1.909558e-01	7.961866e-01	6.944590e-03	-1.874835e-01	1.944280e-01
0.005015401988	-1.909555e-01	7.961863e-01	6.944753e-03	-1.874831e-01	1.944279e-01
0.00501562201	-1.909552e-01	7.961860e-01	6.944915e-03	-1.874827e-01	1.944277e-01
0.005015842031	-1.909549e-01	7.961858e-01	6.945077e-03	-1.874824e-01	1.944275e-01
0.005016062053	-1.909546e-01	7.961855e-01	6.945239e-03	-1.874820e-01	1.944272e-01
0.005016282074	-1.909543e-01	7.961852e-01	6.945402e-03	-1.874816e-01	1.944270e-01
0.005016502096	-1.909541e-01	7.961849e-01	6.945564e-03	-1.874813e-01	1.944268e-01
0.005016722117	-1.909538e-01	7.961846e-01	6.945726e-03	-1.874809e-01	1.944266e-01
0.005016942139	-1.909535e-01	7.961842e-01	6.945888e-03	-1.874805e-01	1.944264e-01
0.00501716216	-1.909532e-01	7.961839e-01	6.946050e-03	-1.874802e-01	1.944262e-01
0.005017382182	-1.909529e-01	7.961836e-01	6.946213e-03	-1.874798e-01	1.944260e-01
0.005017602203	-1.909526e-01	7.961832e-01	6.946375e-03	-1.874794e-01	1.944258e-01
0.005017822225	-1.909523e-01	7.961829e-01	6.946537e-03	-1.874790e-01	1.944256e-01
0.005018042246	-1.909520e-01	7.961825e-01	6.946699e-03	-1.874787e-01	1.944254e-01
0.005018262268	-1.909517e-01	7.961822e-01	6.946861e-03	-1.874783e-01	1.944252e-01
0.005018482289	-1.909514e-01	7.961818e-01	6.947023e-03	-1.874779e-01	1.944249e-01
0.00501870231	-1.909511e-01	7.961814e-01	6.947185e-03	-1.874775e-01	1.944247e-01
0.005018922332	-1.909508e-01	7.961810e-01	6.947347e-03	-1.874771e-01	1.944245e-01
0.005019142353	-1.909505e-01	7.961806e-01	6.947509e-03	-1.874768e-01	1.944243e-01
0.005019362375	-1.909502e-01	7.961802e-01	6.947671e-03	-1.874764e-01	1.944240e-01
0.005019582396	-1.909499e-01	7.961798e-01	6.947833e-03	-1.874760e-01	1.944238e-01
0.005019802418	-1.909496e-01	7.961793e-01	6.947995e-03	-1.874756e-01	1.944236e-01
0.005020022171	-1.909493e-01	7.961789e-01	6.948156e-03	-1.874752e-01	1.944234e-01
0.005020241924	-1.909490e-01	7.961784e-01	6.948318e-03	-1.874748e-01	1.944231e-01
0.005020461677	-1.909487e-01	7.961780e-01	6.948480e-03	-1.874744e-01	1.944229e-01
0.00502068143	-1.909483e-01	7.961775e-01	6.948641e-03	-1.874740e-01	1.944227e-01
0.005020901184	-1.909480e-01	7.961770e-01	6.948803e-03	-1.874736e-01	1.944224e-01
0.005021120937	-1.909477e-01	7.961766e-01	6.948964e-03	-1.874732e-01	1.944222e-01
0.00502134069	-1.909474e-01	7.961761e-01	6.949126e-03	-1.874728e-01	1.944219e-01
0.005021560443	-1.909471e-01	7.961756e-01	6.949287e-03	-1.874724e-01	1.944217e-01
0.005021780196	-1.909467e-01	7.961751e-01	6.949449e-03	-1.874720e-01	1.944215e-01
0.005021999949	-1.909464e-01	7.961746e-01	6.949610e-03	-1.874716e-01	1.944212e-01
0.005022219702	-1.909461e-01	7.961740e-01	6.949772e-03	-1.874712e-01	1.944210e-01
0.005022439456	-1.909458e-01	7.961735e-01	6.949933e-03	-1.874708e-01	1.944207e-01
0.005022659209	-1.909454e-01	7.961730e-01	6.950095e-03	-1.874704e-01	1.944205e-01
0.005022878962	-1.909451e-01	7.961724e-01	6.950256e-03	-1.874700e-01	1.944202e-01
0.005023098715	-1.909448e-01	7.961719e-01	6.950418e-03	-1.874696e-01	1.944200e-01
0.005023318468	-1.909444e-01	7.961713e-01	6.950579e-03	-1.874692e-01	1.944197e-01
0.005023538221	-1.909441e-01	7.961707e-01	6.950740e-03	-1.874687e-01	1.944195e-01
0.005023757974	-1.909438e-01	7.961702e-01	6.950901e-03	-1.874683e-01	1.944192e-01
0.005023977728	-1.909434e-01	7.961696e-01	6.951063e-03	-1.874679e-01	1.944190e-01
0.005024197481	-1.909431e-01	7.961690e-01	6.951224e-03	-1.874675e-01	1.944187e-01
0.005024417234	-1.909428e-01	7.961684e-01	6.951385e-03	-1.874671e-01	1.944185e-01
0.005024636987	-1.909424e-01	7.961677e-01	6.951546e-03	-1.874666e-01	1.944182e-01
0.00502485674	-1.909421e-01	7.961671e-01	6.951708e-03	-1.874662e-01	1.944179e-01
0.005025076493	-1.909417e-01	7.961665e-01	6.951869e-03	-1.874658e-01	1.944177e-01
0.005025296247	-1.909414e-01	7.961658e-01	6.952030e-03	-1.874654e-01	1.944174e-01
0.005025516  	-1.909410e-01	7.961652e-01	6.952191e-03	-1.874649e-01	1.944171e-01
0.005025735753	-1.909407e-01	7.961645e-01	6.952352e-03	-1.874645e-01	1.944169e-01
0.005025955506	-1.909403e-01	7.961638e-01	6.952513e-03	-1.874641e-01	1.944166e-01
0.005026175259	-1.909400e-01	7.961632e-01	6.952674e-03	-1.874636e-01	1.944163e-01
0.005026395012	-1.909396e-01	7.961625e-01	6.952835e-03	-1.874632e-01	1.944160e-01
0.005026614765	-1.909393e-01	7.961618e-01	6.952996e-03	-1.874628e-01	1.944158e-01
0.005026834519	-1.909389e-01	7.961611e-01	6.953157e-03	-1.874623e-01	1.944155e-01
0.005027054272	-1.909386e-01	7.961603e-01	6.953318e-03	-1.874619e-01	1.944152e-01
0.005027274025	-1.909382e-01	7.961596e-01	6.953479e-03	-1.874615e-01	1.944149e-01
0.005027493778	-1.909378e-01	7.961589e-01	6.953640e-03	-1.874610e-01	1.944146e-01
0.005027713531	-1.909375e-01	7.961581e-01	6.953801e-03	-1.874606e-01	1.944144e-01
0.005027933284	-1.909371e-01	7.961573e-01	6.953962e-03	-1.874601e-01	1.944141e-01
0.005028153037	-1.909367e-01	7.961566e-01	6.954123e-03	-1.874597e-01	1.944138e-01
0.005028372791	-1.909364e-01	7.961558e-01	6.954283e-03	-1.874592e-01	1.944135e-01
0.005028592544	-1.909360e-01	7.961550e-01	6.954444e-03	-1.874588e-01	1.944132e-01
0.005028812297	-1.909356e-01	7.961542e-01	6.954605e-03	-1.874583e-01	1.944129e-01
0.00502903205	-1.909352e-01	7.961534e-01	6.954766e-03	-1.874579e-01	1.944126e-01
0.005029251803	-1.909349e-01	7.961526e-01	6.954927e-03	-1.874574e-01	1.944123e-01
0.005029471556	-1.909345e-01	7.961518e-01	6.955087e-03	-1.874570e-01	1.944120e-01
0.00502969131	-1.909341e-01	7.961509e-01	6.955248e-03	-1.874565e-01	1.944117e-01
0.005029911063	-1.909337e-01	7.961501e-01	6.955409e-03	-1.874560e-01	1.944114e-01
0.005030130816	-1.909334e-01	7.961492e-01	6.955569e-03	-1.874556e-01	1.944111e-01
0.005030350569	-1.909330e-01	7.961484e-01	6.955730e-03	-1.874551e-01	1.944108e-01
0.005030570322	-1.909326e-01	7.961475e-01	6.955890e-03	-1.874547e-01	1.944105e-01
0.005030790075	-1.909322e-01	7.961466e-01	6.956051e-03	-1.874542e-01	1.944102e-01
0.005031009828	-1.909318e-01	7.961457e-01	6.956212e-03	-1.874537e-01	1.944099e-01
0.005031229582	-1.909314e-01	7.961448e-01	6.956372e-03	-1.874533e-01	1.944096e-01
0.005031449335	-1.909310e-01	7.961439e-01	6.956533e-03	-1.874528e-01	1.944093e-01
0.005031669088	-1.909307e-01	7.961430e-01	6.956693e-03	-1.874523e-01	1.944090e-01
0.005031888841	-1.909303e-01	7.961421e-01	6.956854e-03	-1.874518e-01	1.944087e-01
0.005032108594	-1.909299e-01	7.961411e-01	6.957014e-03	-1.874514e-01	1.944084e-01
0.005032328347	-1.909295e-01	7.961402e-01	6.957174e-03	-1.874509e-01	1.944081e-01
0.0050325481 	-1.909291e-01	7.961392e-01	6.957335e-03	-1.874504e-01	1.944077e-01
0.005032767854	-1.909287e-01	7.961383e-01	6.957495e-03	-1.874499e-01	1.944074e-01
0.005032987607	-1.909283e-01	7.961373e-01	6.957656e-03	-1.874495e-01	1.944071e-01
0.00503320736	-1.909279e-01	7.961363e-01	6.957816e-03	-1.874490e-01	1.944068e-01
0.005033427113	-1.909275e-01	7.961353e-01	6.957976e-03	-1.874485e-01	1.944065e-01
0.005033646866	-1.909271e-01	7.961343e-01	6.958137e-03	-1.874480e-01	1.944061e-01
0.005033866619	-1.909267e-01	7.961333e-01	6.958297e-03	-1.874475e-01	1.944058e-01
0.005034086372	-1.909263e-01	7.961323e-01	6.958457e-03	-1.874470e-01	1.944055e-01
0.005034306126	-1.909259e-01	7.961312e-01	6.958617e-03	-1.874465e-01	1.944052e-01
0.005034525879	-1.909254e-01	7.961302e-01	6.958778e-03	-1.874461e-01	1.944048e-01
0.005034745632	-1.909250e-01	7.961291e-01	6.958938e-03	-1.874456e-01	1.944045e-01
0.005034965385	-1.909246e-01	7.961281e-01	6.959098e-03	-1.874451e-01	1.944042e-01
0.005035185138	-1.909242e-01	7.961270e-01	6.959258e-03	-1.874446e-01	1.944038e-01
0.005035404891	-1.909238e-01	7.961259e-01	6.959418e-03	-1.874441e-01	1.944035e-01
0.005035624645	-1.909234e-01	7.961248e-01	6.959578e-03	-1.874436e-01	1.944032e-01
0.005035844398	-1.909229e-01	7.961237e-01	6.959738e-03	-1.874431e-01	1.944028e-01
0.005036064151	-1.909225e-01	7.961226e-01	6.959899e-03	-1.874426e-01	1.944025e-01
0.005036283904	-1.909221e-01	7.961215e-01	6.960059e-03	-1.874421e-01	1.944021e-01
0.005036503657	-1.909217e-01	7.961204e-01	6.960219e-03	-1.874416e-01	1.944018e-01
0.00503672341	-1.909213e-01	7.961192e-01	6.960379e-03	-1.874411e-01	1.944014e-01
0.005036943163	-1.909208e-01	7.961181e-01	6.960539e-03	-1.874406e-01	1.944011e-01
0.005037162917	-1.909204e-01	7.961169e-01	6.960698e-03	-1.874401e-01	1.944008e-01
0.00503738267	-1.909200e-01	7.961157e-01	6.960858e-03	-1.874395e-01	1.944004e-01
0.005037602423	-1.909195e-01	7.961146e-01	6.961018e-03	-1.874390e-01	1.944000e-01
0.005037822176	-1.909191e-01	7.961134e-01	6.961178e-03	-1.874385e-01	1.943997e-01
0.005038041929	-1.909187e-01	7.961122e-01	6.961338e-03	-1.874380e-01	1.943993e-01
0.005038261682	-1.909182e-01	7.961110e-01	6.961498e-03	-1.874375e-01	1.943990e-01
0.005038481435	-1.909178e-01	7.961098e-01	6.961658e-03	-1.874370e-01	1.943986e-01
0.005038701189	-1.909174e-01	7.961085e-01	6.961817e-03	-1.874365e-01	1.943983e-01
0.005038920942	-1.909169e-01	7.961073e-01	6.961977e-03	-1.874359e-01	1.943979e-01
0.005039140695	-1.909165e-01	7.961061e-01	6.962137e-03	-1.874354e-01	1.943976e-01
0.005039360448	-1.909160e-01	7.961048e-01	6.962297e-03	-1.874349e-01	1.943972e-01
0.005039580201	-1.909156e-01	7.961035e-01	6.962456e-03	-1.874344e-01	1.943968e-01
0.005039799954	-1.909152e-01	7.961023e-01	6.962616e-03	-1.874338e-01	1.943965e-01
0.005040019708	-1.909147e-01	7.961010e-01	6.962776e-03	-1.874333e-01	1.943961e-01
0.005040239461	-1.909143e-01	7.960997e-01	6.962935e-03	-1.874328e-01	1.943957e-01
0.005040459214	-1.909138e-01	7.960984e-01	6.963095e-03	-1.874323e-01	1.943954e-01
0.005040678967	-1.909134e-01	7.960971e-01	6.963254e-03	-1.874317e-01	1.943950e-01
0.00504089872	-1.909129e-01	7.960958e-01	6.963414e-03	-1.874312e-01	1.943946e-01
0.005041118473	-1.909125e-01	7.960944e-01	6.963573e-03	-1.874307e-01	1.943942e-01
0.005041338226	-1.909120e-01	7.960931e-01	6.963733e-03	-1.874301e-01	1.943939e-01
0.00504155798	-1.909115e-01	7.960918e-01	6.963892e-03	-1.874296e-01	1.943935e-01
0.005041777428	-1.909111e-01	7.960904e-01	6.964052e-03	-1.874291e-01	1.943931e-01
0.005041996877	-1.909106e-01	7.960890e-01	6.964211e-03	-1.874285e-01	1.943927e-01
0.005042216326	-1.909102e-01	7.960876e-01	6.964370e-03	-1.874280e-01	1.943923e-01
0.005042435775	-1.909097e-01	7.960862e-01	6.964529e-03	-1.874274e-01	1.943920e-01
0.005042655223	-1.909092e-01	7.960848e-01	6.964688e-03	-1.874269e-01	1.943916e-01
0.005042874672	-1.909088e-01	7.960834e-01	6.964847e-03	-1.874263e-01	1.943912e-01
0.005043094121	-1.909083e-01	7.960820e-01	6.965006e-03	-1.874258e-01	1.943908e-01
0.00504331357	-1.909078e-01	7.960806e-01	6.965165e-03	-1.874252e-01	1.943904e-01
0.005043533019	-1.909074e-01	7.960792e-01	6.965324e-03	-1.874247e-01	1.943900e-01
0.005043752467	-1.909069e-01	7.960777e-01	6.965483e-03	-1.874241e-01	1.943896e-01
0.005043971916	-1.909064e-01	7.960763e-01	6.965642e-03	-1.874236e-01	1.943892e-01
0.005044191365	-1.909059e-01	7.960748e-01	6.965801e-03	-1.874230e-01	1.943888e-01
0.005044410814	-1.909055e-01	7.960733e-01	6.965960e-03	-1.874225e-01	1.943885e-01
0.005044630263	-1.909050e-01	7.960719e-01	6.966119e-03	-1.874219e-01	1.943881e-01
0.005044849711	-1.909045e-01	7.960704e-01	6.966277e-03	-1.874214e-01	1.943877e-01
0.00504506916	-1.909040e-01	7.960689e-01	6.966436e-03	-1.874208e-01	1.943873e-01
0.005045288609	-1.909036e-01	7.960674e-01	6.966595e-03	-1.874203e-01	1.943869e-01
0.005045508058	-1.909031e-01	7.960659e-01	6.966754e-03	-1.874197e-01	1.943865e-01
0.005045727506	-1.909026e-01	7.960643e-01	6.966913e-03	-1.874192e-01	1.943861e-01
0.005045946955	-1.909021e-01	7.960628e-01	6.967071e-03	-1.874186e-01	1.943857e-01
0.005046166404	-1.909016e-01	7.960613e-01	6.967230e-03	-1.874180e-01	1.943853e-01
0.005046385853	-1.909012e-01	7.960597e-01	6.967389e-03	-1.874175e-01	1.943848e-01
0.005046605302	-1.909007e-01	7.960582e-01	6.967548e-03	-1.874169e-01	1.943844e-01
0.00504682475	-1.909002e-01	7.960566e-01	6.967706e-03	-1.874163e-01	1.943840e-01
0.005047044199	-1.908997e-01	7.960550e-01	6.967865e-03	-1.874158e-01	1.943836e-01
0.005047263648	-1.908992e-01	7.960534e-01	6.968024e-03	-1.874152e-01	1.943832e-01
0.005047483097	-1.908987e-01	7.960518e-01	6.968182e-03	-1.874146e-01	1.943828e-01
0.005047702545	-1.908982e-01	7.960502e-01	6.968341e-03	-1.874140e-01	1.943824e-01
0.005047921994	-1.908977e-01	7.960486e-01	6.968499e-03	-1.874135e-01	1.943820e-01
0.005048141443	-1.908972e-01	7.960470e-01	6.968658e-03	-1.874129e-01	1.943816e-01
0.005048360892	-1.908967e-01	7.960453e-01	6.968817e-03	-1.874123e-01	1.943811e-01
0.005048580341	-1.908962e-01	7.960437e-01	6.968975e-03	-1.874117e-01	1.943807e-01
0.005048799789	-1.908957e-01	7.960420e-01	6.969134e-03	-1.874112e-01	1.943803e-01
0.005049019238	-1.908952e-01	7.960404e-01	6.969292e-03	-1.874106e-01	1.943799e-01
0.005049238687	-1.908947e-01	7.960387e-01	6.969451e-03	-1.874100e-01	1.943794e-01
0.005049458136	-1.908942e-01	7.960370e-01	6.969609e-03	-1.874094e-01	1.943790e-01
0.005049677584	-1.908937e-01	7.960353e-01	6.969767e-03	-1.874088e-01	1.943786e-01
0.005049897033	-1.908932e-01	7.960336e-01	6.969926e-03	-1.874082e-01	1.943782e-01
0.005050116482	-1.908927e-01	7.960319e-01	6.970084e-03	-1.874077e-01	1.943777e-01
0.005050335931	-1.908922e-01	7.960302e-01	6.970242e-03	-1.874071e-01	1.943773e-01
0.00505055538	-1.908917e-01	7.960285e-01	6.970401e-03	-1.874065e-01	1.943769e-01
0.005050774828	-1.908912e-01	7.960267e-01	6.970559e-03	-1.874059e-01	1.943764e-01
0.005050994277	-1.908907e-01	7.960250e-01	6.970717e-03	-1.874053e-01	1.943760e-01
0.005051213726	-1.908901e-01	7.960232e-01	6.970876e-03	-1.874047e-01	1.943756e-01
0.005051433175	-1.908896e-01	7.960215e-01	6.971034e-03	-1.874041e-01	1.943751e-01
0.005051652624	-1.908891e-01	7.960197e-01	6.971192e-03	-1.874035e-01	1.943747e-01
0.005051872072	-1.908886e-01	7.960179e-01	6.971350e-03	-1.874029e-01	1.943743e-01
0.005052091521	-1.908881e-01	7.960161e-01	6.971508e-03	-1.874023e-01	1.943738e-01
0.00505231097	-1.908876e-01	7.960144e-01	6.971667e-03	-1.874017e-01	1.943734e-01
0.005052530419	-1.908870e-01	7.960126e-01	6.971825e-03	-1.874011e-01	1.943730e-01
0.005052749867	-1.908865e-01	7.960107e-01	6.971983e-03	-1.874005e-01	1.943725e-01
0.005052969316	-1.908860e-01	7.960089e-01	6.972141e-03	-1.873999e-01	1.943721e-01
0.005053188765	-1.908855e-01	7.960071e-01	6.972299e-03	-1.873993e-01	1.943716e-01
0.005053408214	-1.908850e-01	7.960053e-01	6.972457e-03	-1.873987e-01	1.943712e-01
0.005053627663	-1.908844e-01	7.960034e-01	6.972615e-03	-1.873981e-01	1.943707e-01
0.005053847111	-1.908839e-01	7.960016e-01	6.972773e-03	-1.873975e-01	1.943703e-01
0.00505406656	-1.908834e-01	7.959997e-01	6.972931e-03	-1.873969e-01	1.943698e-01
0.005054286009	-1.908829e-01	7.959979e-01	6.973089e-03	-1.873963e-01	1.943694e-01
0.005054505458	-1.908823e-01	7.959960e-01	6.973248e-03	-1.873957e-01	1.943689e-01
0.005054724906	-1.908818e-01	7.959941e-01	6.973406e-03	-1.873951e-01	1.943685e-01
0.005054944355	-1.908813e-01	7.959922e-01	6.973564e-03	-1.873945e-01	1.943680e-01
0.005055163804	-1.908807e-01	7.959903e-01	6.973721e-03	-1.873939e-01	1.943676e-01
0.005055383253	-1.908802e-01	7.959884e-01	6.973879e-03	-1.873933e-01	1.943671e-01
0.005055602702	-1.908797e-01	7.959865e-01	6.974037e-03	-1.873926e-01	1.943667e-01
0.00505582215	-1.908791e-01	7.959846e-01	6.974195e-03	-1.873920e-01	1.943662e-01
0.005056041599	-1.908786e-01	7.959827e-01	6.974353e-03	-1.873914e-01	1.943658e-01
0.005056261048	-1.908781e-01	7.959807e-01	6.974511e-03	-1.873908e-01	1.943653e-01
0.005056480497	-1.908775e-01	7.959788e-01	6.974669e-03	-1.873902e-01	1.943649e-01
0.005056699946	-1.908770e-01	7.959769e-01	6.974827e-03	-1.873896e-01	1.943644e-01
0.005056919394	-1.908764e-01	7.959749e-01	6.974985e-03	-1.873890e-01	1.943639e-01
0.005057138843	-1.908759e-01	7.959729e-01	6.975143e-03	-1.873883e-01	1.943635e-01
0.005057358292	-1.908754e-01	7.959710e-01	6.975301e-03	-1.873877e-01	1.943630e-01
0.005057577741	-1.908748e-01	7.959690e-01	6.975458e-03	-1.873871e-01	1.943626e-01
0.005057797189	-1.908743e-01	7.959670e-01	6.975616e-03	-1.873865e-01	1.943621e-01
0.005058016638	-1.908737e-01	7.959650e-01	6.975774e-03	-1.873858e-01	1.943616e-01
0.005058236087	-1.908732e-01	7.959630e-01	6.975932e-03	-1.873852e-01	1.943612e-01
0.005058455536	-1.908726e-01	7.959610e-01	6.976090e-03	-1.873846e-01	1.943607e-01
0.005058674985	-1.908721e-01	7.959590e-01	6.976247e-03	-1.873840e-01	1.943602e-01
0.005058894433	-1.908715e-01	7.959569e-01	6.976405e-03	-1.873833e-01	1.943598e-01
0.005059113882	-1.908710e-01	7.959549e-01	6.976563e-03	-1.873827e-01	1.943593e-01
0.005059333331	-1.908705e-01	7.959529e-01	6.976720e-03	-1.873821e-01	1.943588e-01
0.00505955278	-1.908699e-01	7.959508e-01	6.976878e-03	-1.873815e-01	1.943583e-01
0.005059772228	-1.908693e-01	7.959488e-01	6.977036e-03	-1.873808e-01	1.943579e-01
0.005059991677	-1.908688e-01	7.959467e-01	6.977194e-03	-1.873802e-01	1.943574e-01
0.005060211126	-1.908682e-01	7.959446e-01	6.977351e-03	-1.873796e-01	1.943569e-01
0.005060430575	-1.908677e-01	7.959426e-01	6.977509e-03	-1.873789e-01	1.943564e-01
0.005060650024	-1.908671e-01	7.959405e-01	6.977667e-03	-1.873783e-01	1.943560e-01
0.005060869472	-1.908666e-01	7.959384e-01	6.977824e-03	-1.873777e-01	1.943555e-01
0.005061088921	-1.908660e-01	7.959363e-01	6.977982e-03	-1.873770e-01	1.943550e-01
0.00506130837	-1.908655e-01	7.959342e-01	6.978139e-03	-1.873764e-01	1.943545e-01
0.005061527819	-1.908649e-01	7.959321e-01	6.978297e-03	-1.873758e-01	1.943541e-01
0.005061747267	-1.908643e-01	7.959300e-01	6.978455e-03	-1.873751e-01	1.943536e-01
0.005061966716	-1.908638e-01	7.959279e-01	6.978612e-03	-1.873745e-01	1.943531e-01
0.005062186165	-1.908632e-01	7.959257e-01	6.978770e-03	-1.873738e-01	1.943526e-01
0.005062405614	-1.908627e-01	7.959236e-01	6.978927e-03	-1.873732e-01	1.943521e-01
0.005062625063	-1.908621e-01	7.959215e-01	6.979085e-03	-1.873726e-01	1.943516e-01
0.005062844511	-1.908615e-01	7.959193e-01	6.979242e-03	-1.873719e-01	1.943512e-01
0.00506306396	-1.908610e-01	7.959172e-01	6.979400e-03	-1.873713e-01	1.943507e-01
0.005063283409	-1.908604e-01	7.959150e-01	6.979557e-03	-1.873706e-01	1.943502e-01
0.005063502858	-1.908598e-01	7.959128e-01	6.979715e-03	-1.873700e-01	1.943497e-01
0.005063722307	-1.908593e-01	7.959107e-01	6.979872e-03	-1.873693e-01	1.943492e-01
0.005063941755	-1.908587e-01	7.959085e-01	6.980030e-03	-1.873687e-01	1.943487e-01
0.005064161204	-1.908581e-01	7.959063e-01	6.980187e-03	-1.873681e-01	1.943482e-01
0.005064380653	-1.908576e-01	7.959041e-01	6.980345e-03	-1.873674e-01	1.943478e-01
0.005064600102	-1.908570e-01	7.959019e-01	6.980502e-03	-1.873668e-01	1.943473e-01
0.00506481955	-1.908564e-01	7.958997e-01	6.980659e-03	-1.873661e-01	1.943468e-01
0.005065038999	-1.908559e-01	7.958975e-01	6.980817e-03	-1.873655e-01	1.943463e-01
0.005065258448	-1.908553e-01	7.958953e-01	6.980974e-03	-1.873648e-01	1.943458e-01
0.005065477897	-1.908547e-01	7.958930e-01	6.981132e-03	-1.873642e-01	1.943453e-01
0.005065697346	-1.908542e-01	7.958908e-01	6.981289e-03	-1.873635e-01	1.943448e-01
0.005065916794	-1.908536e-01	7.958886e-01	6.981446e-03	-1.873629e-01	1.943443e-01
0.005066136243	-1.908530e-01	7.958863e-01	6.981604e-03	-1.873622e-01	1.943438e-01
0.005066355692	-1.908524e-01	7.958841e-01	6.981761e-03	-1.873616e-01	1.943433e-01
0.005066575141	-1.908519e-01	7.958818e-01	6.981918e-03	-1.873609e-01	1.943428e-01
0.005066794589	-1.908513e-01	7.958796e-01	6.982076e-03	-1.873602e-01	1.943423e-01
0.005067014038	-1.908507e-01	7.958773e-01	6.982233e-03	-1.873596e-01	1.943418e-01
0.005067233487	-1.908501e-01	7.958751e-01	6.982390e-03	-1.873589e-01	1.943413e-01
0.005067452936	-1.908496e-01	7.958728e-01	6.982547e-03	-1.873583e-01	1.943408e-01
0.005067672385	-1.908490e-01	7.958705e-01	6.982705e-03	-1.873576e-01	1.943403e-01
0.00506789147	-1.908484e-01	7.958682e-01	6.982862e-03	-1.873570e-01	1.943398e-01
0.005068110556	-1.908478e-01	7.958659e-01	6.983019e-03	-1.873563e-01	1.943393e-01
0.005068329641	-1.908472e-01	7.958636e-01	6.983175e-03	-1.873556e-01	1.943388e-01
0.005068548726	-1.908466e-01	7.958613e-01	6.983332e-03	-1.873550e-01	1.943383e-01
0.005068767812	-1.908461e-01	7.958590e-01	6.983489e-03	-1.873543e-01	1.943378e-01
0.005068986897	-1.908455e-01	7.958567e-01	6.983646e-03	-1.873537e-01	1.943373e-01
0.005069205983	-1.908449e-01	7.958544e-01	6.983803e-03	-1.873530e-01	1.943368e-01
0.005069425068	-1.908443e-01	7.958521e-01	6.983960e-03	-1.873523e-01	1.943363e-01
0.005069644154	-1.908437e-01	7.958497e-01	6.984117e-03	-1.873517e-01	1.943358e-01
0.005069863239	-1.908432e-01	7.958474e-01	6.984274e-03	-1.873510e-01	1.943353e-01
0.005070082325	-1.908426e-01	7.958451e-01	6.984430e-03	-1.873504e-01	1.943348e-01
0.00507030141	-1.908420e-01	7.958428e-01	6.984587e-03	-1.873497e-01	1.943343e-01
0.005070520496	-1.908414e-01	7.958404e-01	6.984744e-03	-1.873490e-01	1.943338e-01
0.005070739581	-1.908408e-01	7.958381e-01	6.984901e-03	-1.873484e-01	1.943333e-01
0.005070958666	-1.908402e-01	7.958357e-01	6.985058e-03	-1.873477e-01	1.943328e-01
0.005071177752	-1.908397e-01	7.958334e-01	6.985215e-03	-1.873470e-01	1.943323e-01
0.005071396837	-1.908391e-01	7.958310e-01	6.985372e-03	-1.873464e-01	1.943318e-01
0.005071615923	-1.908385e-01	7.958287e-01	6.985529e-03	-1.873457e-01	1.943312e-01
0.005071835008	-1.908379e-01	7.958263e-01	6.985685e-03	-1.873451e-01	1.943307e-01
0.005072054094	-1.908373e-01	7.958240e-01	6.985842e-03	-1.873444e-01	1.943302e-01
0.005072273179	-1.908367e-01	7.958216e-01	6.985999e-03	-1.873437e-01	1.943297e-01
0.005072492265	-1.908361e-01	7.958192e-01	6.986156e-03	-1.873431e-01	1.943292e-01
0.00507271135	-1.908356e-01	7.958168e-01	6.986313e-03	-1.873424e-01	1.943287e-01
0.005072930436	-1.908350e-01	7.958144e-01	6.986470e-03	-1.873417e-01	1.943282e-01
0.005073149521	-1.908344e-01	7.958121e-01	6.986626e-03	-1.873411e-01	1.943277e-01
0.005073368606	-1.908338e-01	7.958097e-01	6.986783e-03	-1.873404e-01	1.943272e-01
0.005073587692	-1.908332e-01	7.958073e-01	6.986940e-03	-1.873397e-01	1.943267e-01
0.005073806777	-1.908326e-01	7.958049e-01	6.987097e-03	-1.873391e-01	1.943262e-01
0.005074025863	-1.908320e-01	7.958025e-01	6.987254e-03	-1.873384e-01	1.943256e-01
0.005074244948	-1.908314e-01	7.958000e-01	6.987411e-03	-1.873377e-01	1.943251e-01
0.005074464034	-1.908308e-01	7.957976e-01	6.987567e-03	-1.873371e-01	1.943246e-01
0.005074683119	-1.908302e-01	7.957952e-01	6.987724e-03	-1.873364e-01	1.943241e-01
0.005074902205	-1.908296e-01	7.957928e-01	6.987881e-03	-1.873357e-01	1.943236e-01
0.00507512129	-1.908291e-01	7.957904e-01	6.988038e-03	-1.873350e-01	1.943231e-01
0.005075340376	-1.908285e-01	7.957879e-01	6.988195e-03	-1.873344e-01	1.943226e-01
0.005075559461	-1.908279e-01	7.957855e-01	6.988351e-03	-1.873337e-01	1.943220e-01
0.005075778546	-1.908273e-01	7.957831e-01	6.988508e-03	-1.873330e-01	1.943215e-01
0.005075997632	-1.908267e-01	7.957806e-01	6.988665e-03	-1.873323e-01	1.943210e-01
0.005076216717	-1.908261e-01	7.957782e-01	6.988822e-03	-1.873317e-01	1.943205e-01
0.005076435803	-1.908255e-01	7.957757e-01	6.988978e-03	-1.873310e-01	1.943200e-01
0.005076654888	-1.908249e-01	7.957733e-01	6.989135e-03	-1.873303e-01	1.943195e-01
0.005076873974	-1.908243e-01	7.957708e-01	6.989292e-03	-1.873297e-01	1.943189e-01
0.005077093059	-1.908237e-01	7.957684e-01	6.989449e-03	-1.873290e-01	1.943184e-01
0.005077312145	-1.908231e-01	7.957659e-01	6.989606e-03	-1.873283e-01	1.943179e-01
0.00507753123	-1.908225e-01	7.957634e-01	6.989762e-03	-1.873276e-01	1.943174e-01
0.005077750316	-1.908219e-01	7.957610e-01	6.989919e-03	-1.873270e-01	1.943169e-01
0.005077969401	-1.908213e-01	7.957585e-01	6.990076e-03	-1.873263e-01	1.943164e-01
0.005078188486	-1.908207e-01	7.957560e-01	6.990233e-03	-1.873256e-01	1.943158e-01
0.005078407572	-1.908201e-01	7.957535e-01	6.990389e-03	-1.873249e-01	1.943153e-01
0.005078626657	-1.908195e-01	7.957511e-01	6.990546e-03	-1.873243e-01	1.943148e-01
0.005078845743	-1.908189e-01	7.957486e-01	6.990703e-03	-1.873236e-01	1.943143e-01
0.005079064828	-1.908183e-01	7.957461e-01	6.990860e-03	-1.873229e-01	1.943138e-01
0.005079283914	-1.908177e-01	7.957436e-01	6.991016e-03	-1.873222e-01	1.943132e-01