# Force coefficients
# liftDir    : (0.000000e+00 1.000000e+00 0.000000e+00)
# dragDir    : (1.000000e+00 0.000000e+00 0.000000e+00)
# pitchAxis  : (0.000000e+00 0.000000e+00 1.000000e+00)
# magUInf    : 4.440000e+03
# lRef       : 1.998074e+00
# Aref       : 1.998074e-02
# CofR       : (1.500000e+00 0.000000e+00 0.000000e+00)
#            
# Time       	Cm           	Cd           	Cl           	Cl(f)        	Cl(r)        
0.005000230947	-1.998715e-01	8.313437e-01	5.463343e-03	-1.971399e-01	2.026032e-01
0.005000461894	-1.999826e-01	8.317203e-01	5.480223e-03	-1.972425e-01	2.027227e-01
0.005000693108	-2.000861e-01	8.320723e-01	5.495355e-03	-1.973384e-01	2.028337e-01
0.005000924323	-2.001809e-01	8.323967e-01	5.509048e-03	-1.974263e-01	2.029354e-01
0.005001155537	-2.002663e-01	8.326909e-01	5.521520e-03	-1.975056e-01	2.030271e-01
0.005001386752	-2.003421e-01	8.329536e-01	5.532934e-03	-1.975756e-01	2.031085e-01
0.005001617966	-2.004080e-01	8.331839e-01	5.543428e-03	-1.976363e-01	2.031797e-01
0.005001849181	-2.004641e-01	8.333820e-01	5.553116e-03	-1.976876e-01	2.032407e-01
0.005002080395	-2.005109e-01	8.335486e-01	5.562103e-03	-1.977298e-01	2.032919e-01
0.00500231161	-2.005487e-01	8.336854e-01	5.570479e-03	-1.977635e-01	2.033339e-01
0.005002542824	-2.005783e-01	8.337942e-01	5.578324e-03	-1.977891e-01	2.033674e-01
0.005002774039	-2.006004e-01	8.338775e-01	5.585708e-03	-1.978075e-01	2.033932e-01
0.005003005253	-2.006158e-01	8.339380e-01	5.592697e-03	-1.978195e-01	2.034122e-01
0.005003236468	-2.006255e-01	8.339786e-01	5.599350e-03	-1.978258e-01	2.034251e-01
0.005003467682	-2.006303e-01	8.340023e-01	5.605722e-03	-1.978274e-01	2.034331e-01
0.005003698897	-2.006311e-01	8.340120e-01	5.611861e-03	-1.978252e-01	2.034371e-01
0.005003930111	-2.006289e-01	8.340108e-01	5.617803e-03	-1.978200e-01	2.034378e-01
0.005004161326	-2.006244e-01	8.340011e-01	5.623580e-03	-1.978126e-01	2.034362e-01
0.005004392267	-2.006184e-01	8.339857e-01	5.629210e-03	-1.978038e-01	2.034330e-01
0.005004623209	-2.006116e-01	8.339668e-01	5.634720e-03	-1.977942e-01	2.034289e-01
0.005004854151	-2.006045e-01	8.339463e-01	5.640124e-03	-1.977845e-01	2.034246e-01
0.005005085093	-2.005978e-01	8.339260e-01	5.645434e-03	-1.977751e-01	2.034205e-01
0.005005316035	-2.005917e-01	8.339072e-01	5.650661e-03	-1.977664e-01	2.034170e-01
0.005005546977	-2.005866e-01	8.338910e-01	5.655812e-03	-1.977587e-01	2.034145e-01
0.005005777918	-2.005827e-01	8.338782e-01	5.660889e-03	-1.977522e-01	2.034131e-01
0.00500600886	-2.005800e-01	8.338692e-01	5.665895e-03	-1.977471e-01	2.034129e-01
0.005006239802	-2.005786e-01	8.338641e-01	5.670830e-03	-1.977432e-01	2.034140e-01
0.005006470744	-2.005784e-01	8.338629e-01	5.675691e-03	-1.977406e-01	2.034163e-01
0.005006701686	-2.005794e-01	8.338653e-01	5.680475e-03	-1.977391e-01	2.034196e-01
0.005006932628	-2.005812e-01	8.338708e-01	5.685179e-03	-1.977387e-01	2.034238e-01
0.005007163569	-2.005839e-01	8.338789e-01	5.689799e-03	-1.977390e-01	2.034288e-01
0.005007394511	-2.005870e-01	8.338889e-01	5.694330e-03	-1.977399e-01	2.034342e-01
0.005007625453	-2.005906e-01	8.339003e-01	5.698770e-03	-1.977412e-01	2.034399e-01
0.005007856395	-2.005942e-01	8.339122e-01	5.703116e-03	-1.977426e-01	2.034457e-01
0.00500808706	-2.005978e-01	8.339240e-01	5.707361e-03	-1.977441e-01	2.034514e-01
0.005008317724	-2.006011e-01	8.339352e-01	5.711511e-03	-1.977453e-01	2.034568e-01
0.005008548389	-2.006040e-01	8.339451e-01	5.715564e-03	-1.977462e-01	2.034618e-01
0.005008779053	-2.006064e-01	8.339534e-01	5.719523e-03	-1.977466e-01	2.034662e-01
0.005009009718	-2.006082e-01	8.339595e-01	5.723390e-03	-1.977465e-01	2.034699e-01
0.005009240383	-2.006093e-01	8.339634e-01	5.727167e-03	-1.977457e-01	2.034729e-01
0.005009471047	-2.006098e-01	8.339646e-01	5.730858e-03	-1.977443e-01	2.034752e-01
0.005009701712	-2.006095e-01	8.339633e-01	5.734466e-03	-1.977422e-01	2.034767e-01
0.005009932376	-2.006085e-01	8.339594e-01	5.737996e-03	-1.977395e-01	2.034775e-01
0.005010163041	-2.006069e-01	8.339529e-01	5.741453e-03	-1.977361e-01	2.034776e-01
0.005010393705	-2.006046e-01	8.339440e-01	5.744842e-03	-1.977322e-01	2.034770e-01
0.00501062437	-2.006018e-01	8.339330e-01	5.748166e-03	-1.977278e-01	2.034759e-01
0.005010855035	-2.005986e-01	8.339201e-01	5.751431e-03	-1.977229e-01	2.034743e-01
0.005011085699	-2.005950e-01	8.339057e-01	5.754642e-03	-1.977177e-01	2.034723e-01
0.005011316364	-2.005911e-01	8.338900e-01	5.757803e-03	-1.977122e-01	2.034700e-01
0.005011547028	-2.005870e-01	8.338735e-01	5.760916e-03	-1.977066e-01	2.034675e-01
0.005011777693	-2.005829e-01	8.338564e-01	5.763986e-03	-1.977009e-01	2.034649e-01
0.005012008358	-2.005787e-01	8.338392e-01	5.767016e-03	-1.976952e-01	2.034622e-01
0.005012239022	-2.005746e-01	8.338222e-01	5.770007e-03	-1.976896e-01	2.034596e-01
0.005012469687	-2.005706e-01	8.338057e-01	5.772961e-03	-1.976841e-01	2.034570e-01
0.005012700351	-2.005668e-01	8.337898e-01	5.775880e-03	-1.976788e-01	2.034547e-01
0.005012931016	-2.005632e-01	8.337750e-01	5.778764e-03	-1.976738e-01	2.034526e-01
0.005013161681	-2.005600e-01	8.337612e-01	5.781614e-03	-1.976692e-01	2.034508e-01
0.005013392345	-2.005570e-01	8.337486e-01	5.784431e-03	-1.976648e-01	2.034492e-01
0.00501362301	-2.005544e-01	8.337372e-01	5.787215e-03	-1.976608e-01	2.034480e-01
0.005013853674	-2.005520e-01	8.337271e-01	5.789965e-03	-1.976571e-01	2.034470e-01
0.005014084339	-2.005500e-01	8.337182e-01	5.792683e-03	-1.976537e-01	2.034464e-01
0.005014315004	-2.005483e-01	8.337104e-01	5.795367e-03	-1.976506e-01	2.034460e-01
0.005014545668	-2.005468e-01	8.337037e-01	5.798018e-03	-1.976478e-01	2.034458e-01
0.005014776333	-2.005456e-01	8.336980e-01	5.800635e-03	-1.976453e-01	2.034459e-01
0.005015006997	-2.005446e-01	8.336929e-01	5.803219e-03	-1.976430e-01	2.034462e-01
0.005015237662	-2.005438e-01	8.336886e-01	5.805770e-03	-1.976409e-01	2.034466e-01
0.005015468326	-2.005431e-01	8.336847e-01	5.808287e-03	-1.976389e-01	2.034472e-01
0.005015698991	-2.005425e-01	8.336812e-01	5.810772e-03	-1.976371e-01	2.034479e-01
0.005015929656	-2.005420e-01	8.336779e-01	5.813223e-03	-1.976354e-01	2.034486e-01
0.00501616032	-2.005416e-01	8.336748e-01	5.815643e-03	-1.976338e-01	2.034494e-01
0.005016390985	-2.005412e-01	8.336716e-01	5.818031e-03	-1.976322e-01	2.034503e-01
0.005016621649	-2.005409e-01	8.336684e-01	5.820388e-03	-1.976307e-01	2.034511e-01
0.005016852314	-2.005406e-01	8.336651e-01	5.822715e-03	-1.976293e-01	2.034520e-01
0.005017082979	-2.005404e-01	8.336617e-01	5.825014e-03	-1.976279e-01	2.034529e-01
0.005017313643	-2.005401e-01	8.336580e-01	5.827285e-03	-1.976265e-01	2.034538e-01
0.005017544308	-2.005399e-01	8.336542e-01	5.829531e-03	-1.976252e-01	2.034547e-01
0.005017774972	-2.005397e-01	8.336502e-01	5.831751e-03	-1.976239e-01	2.034556e-01
0.005018005345	-2.005396e-01	8.336461e-01	5.833944e-03	-1.976226e-01	2.034565e-01
0.005018235718	-2.005394e-01	8.336419e-01	5.836115e-03	-1.976214e-01	2.034575e-01
0.005018466091	-2.005393e-01	8.336376e-01	5.838264e-03	-1.976202e-01	2.034584e-01
0.005018696464	-2.005392e-01	8.336333e-01	5.840392e-03	-1.976190e-01	2.034594e-01
0.005018926837	-2.005392e-01	8.336290e-01	5.842500e-03	-1.976179e-01	2.034604e-01
0.00501915721	-2.005392e-01	8.336247e-01	5.844589e-03	-1.976169e-01	2.034615e-01
0.005019387583	-2.005392e-01	8.336207e-01	5.846660e-03	-1.976159e-01	2.034626e-01
0.005019617956	-2.005393e-01	8.336167e-01	5.848712e-03	-1.976149e-01	2.034637e-01
0.005019848329	-2.005394e-01	8.336130e-01	5.850746e-03	-1.976140e-01	2.034648e-01
0.005020078702	-2.005395e-01	8.336095e-01	5.852762e-03	-1.976132e-01	2.034659e-01
0.005020309075	-2.005397e-01	8.336064e-01	5.854760e-03	-1.976123e-01	2.034671e-01
0.005020539448	-2.005399e-01	8.336035e-01	5.856740e-03	-1.976115e-01	2.034683e-01
0.005020769821	-2.005401e-01	8.336010e-01	5.858702e-03	-1.976108e-01	2.034695e-01
0.005021000194	-2.005404e-01	8.335989e-01	5.860646e-03	-1.976100e-01	2.034707e-01
0.005021230567	-2.005406e-01	8.335973e-01	5.862573e-03	-1.976094e-01	2.034719e-01
0.00502146094	-2.005410e-01	8.335960e-01	5.864480e-03	-1.976087e-01	2.034732e-01
0.005021691313	-2.005413e-01	8.335953e-01	5.866369e-03	-1.976081e-01	2.034745e-01
0.005021921686	-2.005417e-01	8.335950e-01	5.868240e-03	-1.976075e-01	2.034758e-01
0.005022152059	-2.005421e-01	8.335953e-01	5.870092e-03	-1.976070e-01	2.034771e-01
0.005022382432	-2.005425e-01	8.335960e-01	5.871924e-03	-1.976065e-01	2.034785e-01
0.005022612805	-2.005430e-01	8.335973e-01	5.873738e-03	-1.976061e-01	2.034799e-01
0.005022843178	-2.005435e-01	8.335991e-01	5.875533e-03	-1.976058e-01	2.034813e-01
0.005023073551	-2.005441e-01	8.336013e-01	5.877309e-03	-1.976054e-01	2.034828e-01
0.005023303924	-2.005447e-01	8.336040e-01	5.879066e-03	-1.976052e-01	2.034843e-01
0.005023534297	-2.005454e-01	8.336072e-01	5.880804e-03	-1.976050e-01	2.034858e-01
0.00502376467	-2.005461e-01	8.336107e-01	5.882524e-03	-1.976048e-01	2.034874e-01
0.005023995043	-2.005468e-01	8.336145e-01	5.884226e-03	-1.976047e-01	2.034890e-01
0.005024225416	-2.005476e-01	8.336185e-01	5.885911e-03	-1.976047e-01	2.034906e-01
0.005024455789	-2.005484e-01	8.336228e-01	5.887578e-03	-1.976046e-01	2.034922e-01
0.005024686162	-2.005492e-01	8.336271e-01	5.889228e-03	-1.976046e-01	2.034939e-01
0.005024916535	-2.005501e-01	8.336315e-01	5.890862e-03	-1.976046e-01	2.034955e-01
0.005025146908	-2.005509e-01	8.336358e-01	5.892481e-03	-1.976046e-01	2.034971e-01
0.005025377281	-2.005517e-01	8.336400e-01	5.894084e-03	-1.976046e-01	2.034987e-01
0.005025607654	-2.005525e-01	8.336440e-01	5.895673e-03	-1.976046e-01	2.035003e-01
0.005025838027	-2.005532e-01	8.336478e-01	5.897248e-03	-1.976046e-01	2.035018e-01
0.0050260684 	-2.005539e-01	8.336512e-01	5.898811e-03	-1.976045e-01	2.035033e-01
0.005026298773	-2.005546e-01	8.336543e-01	5.900360e-03	-1.976044e-01	2.035047e-01
0.005026529146	-2.005552e-01	8.336570e-01	5.901897e-03	-1.976042e-01	2.035061e-01
0.005026759519	-2.005557e-01	8.336593e-01	5.903423e-03	-1.976040e-01	2.035074e-01
0.005026989892	-2.005562e-01	8.336612e-01	5.904938e-03	-1.976038e-01	2.035087e-01
0.005027220265	-2.005567e-01	8.336627e-01	5.906443e-03	-1.976035e-01	2.035099e-01
0.005027450638	-2.005571e-01	8.336638e-01	5.907937e-03	-1.976031e-01	2.035111e-01
0.005027681011	-2.005574e-01	8.336646e-01	5.909422e-03	-1.976027e-01	2.035122e-01
0.005027911384	-2.005578e-01	8.336650e-01	5.910898e-03	-1.976023e-01	2.035132e-01
0.005028141757	-2.005581e-01	8.336652e-01	5.912364e-03	-1.976019e-01	2.035143e-01
0.00502837213	-2.005584e-01	8.336653e-01	5.913821e-03	-1.976015e-01	2.035153e-01
0.005028602502	-2.005587e-01	8.336652e-01	5.915270e-03	-1.976011e-01	2.035164e-01
0.005028832875	-2.005591e-01	8.336650e-01	5.916711e-03	-1.976007e-01	2.035174e-01
0.005029063248	-2.005594e-01	8.336648e-01	5.918142e-03	-1.976004e-01	2.035185e-01
0.005029293621	-2.005598e-01	8.336648e-01	5.919566e-03	-1.976000e-01	2.035196e-01
0.005029523994	-2.005603e-01	8.336649e-01	5.920981e-03	-1.975998e-01	2.035208e-01
0.005029754367	-2.005608e-01	8.336651e-01	5.922389e-03	-1.975996e-01	2.035220e-01
0.00502998474	-2.005614e-01	8.336657e-01	5.923787e-03	-1.975995e-01	2.035233e-01
0.005030215113	-2.005621e-01	8.336666e-01	5.925178e-03	-1.975995e-01	2.035247e-01
0.005030445486	-2.005629e-01	8.336679e-01	5.926560e-03	-1.975996e-01	2.035261e-01
0.005030675859	-2.005637e-01	8.336695e-01	5.927934e-03	-1.975998e-01	2.035277e-01
0.005030906232	-2.005647e-01	8.336717e-01	5.929300e-03	-1.976001e-01	2.035294e-01
0.005031136605	-2.005658e-01	8.336743e-01	5.930656e-03	-1.976005e-01	2.035311e-01
0.005031366978	-2.005670e-01	8.336773e-01	5.932005e-03	-1.976010e-01	2.035330e-01
0.005031597351	-2.005682e-01	8.336809e-01	5.933344e-03	-1.976016e-01	2.035349e-01
0.005031827724	-2.005696e-01	8.336849e-01	5.934675e-03	-1.976023e-01	2.035370e-01
0.005032058097	-2.005711e-01	8.336894e-01	5.935997e-03	-1.976031e-01	2.035391e-01
0.00503228847	-2.005727e-01	8.336943e-01	5.937310e-03	-1.976040e-01	2.035413e-01
0.005032518843	-2.005743e-01	8.336996e-01	5.938615e-03	-1.976050e-01	2.035436e-01
0.005032749216	-2.005760e-01	8.337054e-01	5.939910e-03	-1.976061e-01	2.035460e-01
0.005032979589	-2.005778e-01	8.337115e-01	5.941196e-03	-1.976072e-01	2.035484e-01
0.005033209962	-2.005797e-01	8.337179e-01	5.942473e-03	-1.976084e-01	2.035509e-01
0.005033440335	-2.005815e-01	8.337247e-01	5.943741e-03	-1.976097e-01	2.035534e-01
0.005033670708	-2.005835e-01	8.337317e-01	5.945000e-03	-1.976110e-01	2.035560e-01
0.005033901081	-2.005854e-01	8.337389e-01	5.946251e-03	-1.976123e-01	2.035586e-01
0.005034131454	-2.005874e-01	8.337463e-01	5.947492e-03	-1.976137e-01	2.035612e-01
0.005034361827	-2.005894e-01	8.337538e-01	5.948725e-03	-1.976151e-01	2.035638e-01
0.0050345922 	-2.005914e-01	8.337615e-01	5.949948e-03	-1.976165e-01	2.035664e-01
0.005034822573	-2.005934e-01	8.337692e-01	5.951164e-03	-1.976179e-01	2.035690e-01
0.005035052946	-2.005955e-01	8.337770e-01	5.952370e-03	-1.976193e-01	2.035716e-01
0.005035283319	-2.005975e-01	8.337848e-01	5.953569e-03	-1.976207e-01	2.035742e-01
0.005035513692	-2.005995e-01	8.337927e-01	5.954759e-03	-1.976221e-01	2.035768e-01
0.005035744065	-2.006014e-01	8.338005e-01	5.955940e-03	-1.976235e-01	2.035794e-01
0.005035974438	-2.006034e-01	8.338084e-01	5.957114e-03	-1.976248e-01	2.035819e-01
0.005036204811	-2.006053e-01	8.338162e-01	5.958280e-03	-1.976262e-01	2.035845e-01
0.005036435184	-2.006072e-01	8.338240e-01	5.959439e-03	-1.976275e-01	2.035870e-01
0.005036665557	-2.006091e-01	8.338318e-01	5.960589e-03	-1.976288e-01	2.035894e-01
0.00503689593	-2.006110e-01	8.338395e-01	5.961732e-03	-1.976301e-01	2.035919e-01
0.005037126303	-2.006129e-01	8.338472e-01	5.962868e-03	-1.976314e-01	2.035943e-01
0.005037356676	-2.006147e-01	8.338548e-01	5.963997e-03	-1.976327e-01	2.035967e-01
0.005037587049	-2.006165e-01	8.338624e-01	5.965118e-03	-1.976339e-01	2.035991e-01
0.005037817422	-2.006183e-01	8.338700e-01	5.966233e-03	-1.976352e-01	2.036014e-01
0.005038047795	-2.006200e-01	8.338775e-01	5.967340e-03	-1.976364e-01	2.036037e-01
0.005038278168	-2.006218e-01	8.338850e-01	5.968441e-03	-1.976376e-01	2.036060e-01
0.005038508541	-2.006235e-01	8.338925e-01	5.969534e-03	-1.976387e-01	2.036083e-01
0.005038738914	-2.006252e-01	8.338999e-01	5.970621e-03	-1.976399e-01	2.036105e-01
0.005038969287	-2.006269e-01	8.339073e-01	5.971702e-03	-1.976410e-01	2.036127e-01
0.00503919966	-2.006285e-01	8.339147e-01	5.972776e-03	-1.976421e-01	2.036149e-01
0.005039430033	-2.006301e-01	8.339220e-01	5.973843e-03	-1.976432e-01	2.036171e-01
0.005039660406	-2.006317e-01	8.339293e-01	5.974905e-03	-1.976443e-01	2.036192e-01
0.005039890779	-2.006333e-01	8.339366e-01	5.975959e-03	-1.976454e-01	2.036213e-01
0.005040121152	-2.006349e-01	8.339437e-01	5.977008e-03	-1.976464e-01	2.036234e-01
0.005040351524	-2.006364e-01	8.339509e-01	5.978050e-03	-1.976474e-01	2.036255e-01
0.005040581897	-2.006379e-01	8.339580e-01	5.979086e-03	-1.976484e-01	2.036275e-01
0.00504081227	-2.006394e-01	8.339650e-01	5.980116e-03	-1.976494e-01	2.036295e-01
0.005041042643	-2.006409e-01	8.339719e-01	5.981140e-03	-1.976503e-01	2.036314e-01
0.005041273016	-2.006423e-01	8.339787e-01	5.982158e-03	-1.976512e-01	2.036334e-01
0.005041503389	-2.006437e-01	8.339855e-01	5.983170e-03	-1.976521e-01	2.036353e-01
0.005041733762	-2.006451e-01	8.339922e-01	5.984176e-03	-1.976530e-01	2.036372e-01
0.005041964135	-2.006464e-01	8.339987e-01	5.985176e-03	-1.976538e-01	2.036390e-01
0.005042194508	-2.006477e-01	8.340052e-01	5.986171e-03	-1.976546e-01	2.036408e-01
0.005042424881	-2.006490e-01	8.340116e-01	5.987160e-03	-1.976554e-01	2.036426e-01
0.005042655254	-2.006503e-01	8.340178e-01	5.988143e-03	-1.976562e-01	2.036443e-01
0.005042885627	-2.006515e-01	8.340239e-01	5.989121e-03	-1.976569e-01	2.036460e-01
0.005043116  	-2.006526e-01	8.340300e-01	5.990093e-03	-1.976576e-01	2.036477e-01
0.005043346373	-2.006538e-01	8.340358e-01	5.991060e-03	-1.976583e-01	2.036493e-01
0.005043576746	-2.006549e-01	8.340416e-01	5.992021e-03	-1.976589e-01	2.036509e-01
0.005043807119	-2.006560e-01	8.340473e-01	5.992977e-03	-1.976595e-01	2.036525e-01
0.005044037492	-2.006570e-01	8.340528e-01	5.993928e-03	-1.976601e-01	2.036540e-01
0.005044267865	-2.006581e-01	8.340582e-01	5.994873e-03	-1.976606e-01	2.036555e-01
0.005044498238	-2.006590e-01	8.340634e-01	5.995814e-03	-1.976611e-01	2.036569e-01
0.005044728611	-2.006600e-01	8.340686e-01	5.996749e-03	-1.976616e-01	2.036584e-01
0.005044958984	-2.006609e-01	8.340736e-01	5.997679e-03	-1.976621e-01	2.036597e-01
0.005045189357	-2.006618e-01	8.340785e-01	5.998603e-03	-1.976625e-01	2.036611e-01
0.00504541973	-2.006626e-01	8.340832e-01	5.999523e-03	-1.976629e-01	2.036624e-01
0.005045650103	-2.006634e-01	8.340878e-01	6.000438e-03	-1.976632e-01	2.036637e-01
0.005045880476	-2.006642e-01	8.340923e-01	6.001347e-03	-1.976635e-01	2.036649e-01
0.005046110849	-2.006650e-01	8.340966e-01	6.002252e-03	-1.976638e-01	2.036661e-01
0.005046341222	-2.006657e-01	8.341008e-01	6.003152e-03	-1.976641e-01	2.036672e-01
0.005046571595	-2.006663e-01	8.341049e-01	6.004047e-03	-1.976643e-01	2.036684e-01
0.005046801968	-2.006670e-01	8.341088e-01	6.004937e-03	-1.976645e-01	2.036694e-01
0.005047032341	-2.006676e-01	8.341126e-01	6.005822e-03	-1.976647e-01	2.036705e-01
0.005047262714	-2.006681e-01	8.341163e-01	6.006702e-03	-1.976648e-01	2.036715e-01
0.005047493087	-2.006686e-01	8.341197e-01	6.007578e-03	-1.976649e-01	2.036724e-01
0.00504772346	-2.006691e-01	8.341231e-01	6.008448e-03	-1.976649e-01	2.036734e-01
0.005047953833	-2.006696e-01	8.341263e-01	6.009315e-03	-1.976649e-01	2.036742e-01
0.005048184206	-2.006700e-01	8.341293e-01	6.010176e-03	-1.976649e-01	2.036751e-01
0.005048414579	-2.006704e-01	8.341321e-01	6.011033e-03	-1.976648e-01	2.036759e-01
0.005048644952	-2.006707e-01	8.341349e-01	6.011886e-03	-1.976647e-01	2.036766e-01
0.005048875325	-2.006710e-01	8.341374e-01	6.012734e-03	-1.976646e-01	2.036773e-01
0.005049105698	-2.006712e-01	8.341398e-01	6.013577e-03	-1.976645e-01	2.036780e-01
0.005049336071	-2.006715e-01	8.341420e-01	6.014417e-03	-1.976643e-01	2.036787e-01
0.005049566444	-2.006717e-01	8.341441e-01	6.015252e-03	-1.976640e-01	2.036793e-01
0.005049796817	-2.006718e-01	8.341461e-01	6.016083e-03	-1.976638e-01	2.036799e-01
0.00505002719	-2.006719e-01	8.341479e-01	6.016910e-03	-1.976635e-01	2.036804e-01
0.005050257563	-2.006720e-01	8.341495e-01	6.017732e-03	-1.976632e-01	2.036809e-01
0.005050487936	-2.006721e-01	8.341510e-01	6.018551e-03	-1.976628e-01	2.036814e-01
0.005050718309	-2.006721e-01	8.341524e-01	6.019366e-03	-1.976624e-01	2.036818e-01
0.005050948682	-2.006721e-01	8.341537e-01	6.020177e-03	-1.976620e-01	2.036822e-01
0.005051179055	-2.006721e-01	8.341548e-01	6.020984e-03	-1.976616e-01	2.036826e-01
0.005051409428	-2.006720e-01	8.341559e-01	6.021787e-03	-1.976611e-01	2.036829e-01
0.005051639801	-2.006720e-01	8.341568e-01	6.022586e-03	-1.976607e-01	2.036833e-01
0.005051870174	-2.006719e-01	8.341576e-01	6.023382e-03	-1.976602e-01	2.036836e-01
0.005052100547	-2.006718e-01	8.341584e-01	6.024174e-03	-1.976597e-01	2.036838e-01
0.005052330919	-2.006716e-01	8.341591e-01	6.024963e-03	-1.976591e-01	2.036841e-01
0.005052561292	-2.006715e-01	8.341597e-01	6.025748e-03	-1.976586e-01	2.036843e-01
0.005052791665	-2.006713e-01	8.341603e-01	6.026529e-03	-1.976580e-01	2.036846e-01
0.005053022038	-2.006711e-01	8.341607e-01	6.027307e-03	-1.976574e-01	2.036848e-01
0.005053252411	-2.006709e-01	8.341612e-01	6.028081e-03	-1.976569e-01	2.036849e-01
0.005053482784	-2.006707e-01	8.341616e-01	6.028851e-03	-1.976563e-01	2.036851e-01
0.005053713157	-2.006704e-01	8.341620e-01	6.029618e-03	-1.976556e-01	2.036853e-01
0.00505394353	-2.006702e-01	8.341623e-01	6.030381e-03	-1.976550e-01	2.036854e-01
0.005054173903	-2.006699e-01	8.341626e-01	6.031141e-03	-1.976544e-01	2.036855e-01
0.005054404276	-2.006697e-01	8.341628e-01	6.031896e-03	-1.976537e-01	2.036856e-01
0.005054634649	-2.006694e-01	8.341630e-01	6.032649e-03	-1.976530e-01	2.036857e-01
0.005054865022	-2.006691e-01	8.341632e-01	6.033397e-03	-1.976524e-01	2.036858e-01
0.005055095395	-2.006688e-01	8.341634e-01	6.034142e-03	-1.976517e-01	2.036858e-01
0.005055325768	-2.006684e-01	8.341635e-01	6.034883e-03	-1.976510e-01	2.036859e-01
0.005055556141	-2.006681e-01	8.341636e-01	6.035621e-03	-1.976503e-01	2.036859e-01
0.005055786514	-2.006677e-01	8.341636e-01	6.036355e-03	-1.976495e-01	2.036859e-01
0.005056016887	-2.006673e-01	8.341636e-01	6.037085e-03	-1.976488e-01	2.036859e-01
0.00505624726	-2.006669e-01	8.341635e-01	6.037811e-03	-1.976480e-01	2.036858e-01
0.005056477633	-2.006665e-01	8.341634e-01	6.038534e-03	-1.976473e-01	2.036858e-01
0.005056708006	-2.006661e-01	8.341632e-01	6.039253e-03	-1.976465e-01	2.036857e-01
0.005056938379	-2.006656e-01	8.341629e-01	6.039969e-03	-1.976457e-01	2.036856e-01
0.005057168752	-2.006652e-01	8.341626e-01	6.040680e-03	-1.976448e-01	2.036855e-01
0.005057399125	-2.006647e-01	8.341622e-01	6.041389e-03	-1.976440e-01	2.036854e-01
0.005057629498	-2.006642e-01	8.341616e-01	6.042094e-03	-1.976431e-01	2.036852e-01
0.005057859871	-2.006637e-01	8.341610e-01	6.042795e-03	-1.976423e-01	2.036851e-01
0.005058090244	-2.006631e-01	8.341603e-01	6.043493e-03	-1.976414e-01	2.036849e-01
0.005058320617	-2.006626e-01	8.341595e-01	6.044188e-03	-1.976405e-01	2.036846e-01
0.00505855099	-2.006620e-01	8.341586e-01	6.044879e-03	-1.976395e-01	2.036844e-01
0.005058781363	-2.006614e-01	8.341576e-01	6.045568e-03	-1.976386e-01	2.036841e-01
0.005059011736	-2.006607e-01	8.341565e-01	6.046253e-03	-1.976376e-01	2.036839e-01
0.005059242109	-2.006601e-01	8.341553e-01	6.046935e-03	-1.976366e-01	2.036836e-01
0.005059472482	-2.006594e-01	8.341540e-01	6.047614e-03	-1.976356e-01	2.036832e-01
0.005059702855	-2.006588e-01	8.341525e-01	6.048291e-03	-1.976346e-01	2.036829e-01
0.005059933228	-2.006581e-01	8.341510e-01	6.048964e-03	-1.976336e-01	2.036826e-01
0.005060163601	-2.006574e-01	8.341494e-01	6.049635e-03	-1.976326e-01	2.036822e-01
0.005060393974	-2.006567e-01	8.341477e-01	6.050303e-03	-1.976315e-01	2.036818e-01
0.005060624347	-2.006559e-01	8.341460e-01	6.050969e-03	-1.976304e-01	2.036814e-01
0.00506085472	-2.006552e-01	8.341441e-01	6.051632e-03	-1.976294e-01	2.036810e-01
0.005061085093	-2.006544e-01	8.341422e-01	6.052293e-03	-1.976283e-01	2.036806e-01
0.005061315466	-2.006537e-01	8.341402e-01	6.052952e-03	-1.976272e-01	2.036802e-01
0.005061545839	-2.006529e-01	8.341382e-01	6.053608e-03	-1.976261e-01	2.036797e-01
0.005061776212	-2.006522e-01	8.341362e-01	6.054261e-03	-1.976251e-01	2.036793e-01
0.005062006585	-2.006514e-01	8.341341e-01	6.054913e-03	-1.976240e-01	2.036789e-01
0.005062236958	-2.006507e-01	8.341319e-01	6.055562e-03	-1.976229e-01	2.036784e-01
0.005062467331	-2.006499e-01	8.341298e-01	6.056209e-03	-1.976218e-01	2.036780e-01
0.005062697704	-2.006491e-01	8.341277e-01	6.056854e-03	-1.976207e-01	2.036776e-01
0.005062928077	-2.006484e-01	8.341255e-01	6.057497e-03	-1.976196e-01	2.036771e-01
0.00506315845	-2.006476e-01	8.341234e-01	6.058138e-03	-1.976186e-01	2.036767e-01
0.005063388823	-2.006469e-01	8.341213e-01	6.058776e-03	-1.976175e-01	2.036763e-01
0.005063619196	-2.006461e-01	8.341192e-01	6.059412e-03	-1.976164e-01	2.036759e-01
0.005063849569	-2.006454e-01	8.341172e-01	6.060046e-03	-1.976154e-01	2.036754e-01
0.005064079941	-2.006447e-01	8.341152e-01	6.060678e-03	-1.976144e-01	2.036750e-01
0.005064310314	-2.006440e-01	8.341132e-01	6.061308e-03	-1.976133e-01	2.036746e-01
0.005064540687	-2.006433e-01	8.341112e-01	6.061936e-03	-1.976123e-01	2.036742e-01
0.00506477106	-2.006426e-01	8.341094e-01	6.062561e-03	-1.976113e-01	2.036738e-01
0.005065001433	-2.006419e-01	8.341075e-01	6.063184e-03	-1.976103e-01	2.036735e-01
0.005065231806	-2.006412e-01	8.341057e-01	6.063805e-03	-1.976093e-01	2.036731e-01
0.005065462179	-2.006405e-01	8.341040e-01	6.064423e-03	-1.976083e-01	2.036727e-01
0.005065692552	-2.006398e-01	8.341023e-01	6.065039e-03	-1.976073e-01	2.036724e-01
0.005065922925	-2.006392e-01	8.341006e-01	6.065653e-03	-1.976063e-01	2.036720e-01
0.005066153298	-2.006385e-01	8.340990e-01	6.066264e-03	-1.976054e-01	2.036716e-01
0.005066383671	-2.006379e-01	8.340975e-01	6.066873e-03	-1.976044e-01	2.036713e-01
0.005066614044	-2.006372e-01	8.340960e-01	6.067479e-03	-1.976035e-01	2.036709e-01
0.005066844417	-2.006366e-01	8.340945e-01	6.068083e-03	-1.976025e-01	2.036706e-01
0.00506707479	-2.006359e-01	8.340931e-01	6.068684e-03	-1.976016e-01	2.036703e-01
0.005067305163	-2.006353e-01	8.340916e-01	6.069283e-03	-1.976006e-01	2.036699e-01
0.005067535536	-2.006346e-01	8.340902e-01	6.069880e-03	-1.975997e-01	2.036696e-01
0.005067765909	-2.006340e-01	8.340889e-01	6.070474e-03	-1.975987e-01	2.036692e-01
0.005067996282	-2.006333e-01	8.340875e-01	6.071066e-03	-1.975978e-01	2.036689e-01
0.005068226655	-2.006327e-01	8.340862e-01	6.071655e-03	-1.975969e-01	2.036685e-01
0.005068457028	-2.006320e-01	8.340848e-01	6.072242e-03	-1.975959e-01	2.036682e-01
0.005068687401	-2.006314e-01	8.340835e-01	6.072826e-03	-1.975950e-01	2.036678e-01
0.005068917774	-2.006307e-01	8.340821e-01	6.073408e-03	-1.975940e-01	2.036674e-01
0.005069148147	-2.006301e-01	8.340808e-01	6.073987e-03	-1.975931e-01	2.036671e-01
0.00506937852	-2.006294e-01	8.340794e-01	6.074565e-03	-1.975921e-01	2.036667e-01
0.005069608893	-2.006288e-01	8.340780e-01	6.075139e-03	-1.975912e-01	2.036663e-01
0.005069839266	-2.006281e-01	8.340766e-01	6.075712e-03	-1.975902e-01	2.036659e-01
0.005070069639	-2.006274e-01	8.340752e-01	6.076282e-03	-1.975893e-01	2.036655e-01
0.005070300012	-2.006267e-01	8.340737e-01	6.076850e-03	-1.975883e-01	2.036651e-01
0.005070530385	-2.006260e-01	8.340722e-01	6.077416e-03	-1.975873e-01	2.036647e-01
0.005070760758	-2.006253e-01	8.340707e-01	6.077980e-03	-1.975863e-01	2.036643e-01
0.005070991131	-2.006246e-01	8.340691e-01	6.078542e-03	-1.975853e-01	2.036639e-01
0.005071221504	-2.006239e-01	8.340675e-01	6.079101e-03	-1.975844e-01	2.036635e-01
0.005071451877	-2.006232e-01	8.340659e-01	6.079658e-03	-1.975834e-01	2.036630e-01
0.00507168225	-2.006225e-01	8.340642e-01	6.080214e-03	-1.975824e-01	2.036626e-01
0.005071912623	-2.006217e-01	8.340624e-01	6.080767e-03	-1.975814e-01	2.036621e-01
0.005072142996	-2.006210e-01	8.340607e-01	6.081319e-03	-1.975803e-01	2.036617e-01
0.005072373369	-2.006203e-01	8.340588e-01	6.081868e-03	-1.975793e-01	2.036612e-01
0.005072603742	-2.006195e-01	8.340570e-01	6.082416e-03	-1.975783e-01	2.036607e-01
0.005072834115	-2.006188e-01	8.340551e-01	6.082962e-03	-1.975773e-01	2.036602e-01
0.005073064488	-2.006180e-01	8.340531e-01	6.083506e-03	-1.975763e-01	2.036598e-01
0.005073294861	-2.006173e-01	8.340511e-01	6.084048e-03	-1.975752e-01	2.036593e-01
0.005073525234	-2.006165e-01	8.340491e-01	6.084589e-03	-1.975742e-01	2.036588e-01
0.005073755607	-2.006157e-01	8.340470e-01	6.085128e-03	-1.975732e-01	2.036583e-01
0.00507398598	-2.006150e-01	8.340449e-01	6.085665e-03	-1.975721e-01	2.036578e-01
0.005074216353	-2.006142e-01	8.340427e-01	6.086200e-03	-1.975711e-01	2.036573e-01
0.005074446726	-2.006134e-01	8.340406e-01	6.086734e-03	-1.975701e-01	2.036568e-01
0.005074677099	-2.006127e-01	8.340383e-01	6.087266e-03	-1.975690e-01	2.036563e-01
0.005074907472	-2.006119e-01	8.340361e-01	6.087797e-03	-1.975680e-01	2.036558e-01
0.005075137845	-2.006111e-01	8.340338e-01	6.088326e-03	-1.975670e-01	2.036553e-01
0.005075368218	-2.006104e-01	8.340316e-01	6.088853e-03	-1.975659e-01	2.036548e-01
0.005075598591	-2.006096e-01	8.340293e-01	6.089379e-03	-1.975649e-01	2.036543e-01
0.005075828963	-2.006088e-01	8.340269e-01	6.089904e-03	-1.975639e-01	2.036538e-01
0.005076059336	-2.006080e-01	8.340246e-01	6.090427e-03	-1.975628e-01	2.036533e-01
0.005076289709	-2.006073e-01	8.340223e-01	6.090948e-03	-1.975618e-01	2.036528e-01
0.005076520082	-2.006065e-01	8.340199e-01	6.091468e-03	-1.975608e-01	2.036523e-01
0.005076750455	-2.006058e-01	8.340176e-01	6.091986e-03	-1.975598e-01	2.036518e-01
0.005076980828	-2.006050e-01	8.340153e-01	6.092502e-03	-1.975587e-01	2.036512e-01
0.005077211201	-2.006042e-01	8.340129e-01	6.093017e-03	-1.975577e-01	2.036508e-01
0.005077441574	-2.006035e-01	8.340106e-01	6.093531e-03	-1.975567e-01	2.036503e-01
0.005077671947	-2.006027e-01	8.340083e-01	6.094043e-03	-1.975557e-01	2.036498e-01
0.00507790232	-2.006020e-01	8.340061e-01	6.094553e-03	-1.975547e-01	2.036493e-01
0.005078132693	-2.006012e-01	8.340038e-01	6.095062e-03	-1.975537e-01	2.036488e-01
0.005078363066	-2.006005e-01	8.340016e-01	6.095570e-03	-1.975527e-01	2.036483e-01
0.005078593439	-2.005998e-01	8.339993e-01	6.096075e-03	-1.975517e-01	2.036478e-01
0.005078823812	-2.005990e-01	8.339972e-01	6.096579e-03	-1.975507e-01	2.036473e-01
0.005079054185	-2.005983e-01	8.339950e-01	6.097082e-03	-1.975497e-01	2.036468e-01
0.005079284558	-2.005975e-01	8.339929e-01	6.097583e-03	-1.975487e-01	2.036463e-01
0.005079514931	-2.005968e-01	8.339908e-01	6.098082e-03	-1.975478e-01	2.036458e-01
0.005079745304	-2.005961e-01	8.339887e-01	6.098579e-03	-1.975468e-01	2.036454e-01
0.005079975677	-2.005953e-01	8.339866e-01	6.099075e-03	-1.975458e-01	2.036449e-01
0.00508020605	-2.005946e-01	8.339846e-01	6.099569e-03	-1.975448e-01	2.036444e-01
0.005080436423	-2.005938e-01	8.339826e-01	6.100061e-03	-1.975438e-01	2.036439e-01
0.005080666796	-2.005931e-01	8.339807e-01	6.100551e-03	-1.975428e-01	2.036434e-01
0.005080897169	-2.005923e-01	8.339787e-01	6.101040e-03	-1.975418e-01	2.036429e-01
0.005081127542	-2.005916e-01	8.339768e-01	6.101527e-03	-1.975408e-01	2.036423e-01
0.005081357915	-2.005908e-01	8.339748e-01	6.102012e-03	-1.975398e-01	2.036418e-01
0.005081588288	-2.005900e-01	8.339729e-01	6.102495e-03	-1.975388e-01	2.036413e-01
0.005081818661	-2.005893e-01	8.339710e-01	6.102977e-03	-1.975378e-01	2.036407e-01
0.005082049034	-2.005885e-01	8.339691e-01	6.103457e-03	-1.975367e-01	2.036402e-01
0.005082279407	-2.005877e-01	8.339672e-01	6.103934e-03	-1.975357e-01	2.036396e-01
0.00508250978	-2.005868e-01	8.339653e-01	6.104410e-03	-1.975346e-01	2.036391e-01
0.005082740153	-2.005860e-01	8.339634e-01	6.104884e-03	-1.975336e-01	2.036385e-01
0.005082970526	-2.005852e-01	8.339614e-01	6.105356e-03	-1.975325e-01	2.036379e-01
0.005083200899	-2.005843e-01	8.339594e-01	6.105826e-03	-1.975314e-01	2.036372e-01